LAMMPS (21 Nov 2023)
OMP_NUM_THREADS environment is not set. Defaulting to 1 thread. (src/comm.cpp:98)
  using 1 OpenMP thread(s) per MPI task
###variable outfile string L15.17
###variable L equal 15.17

units lj

newton off
atom_style      sphere
boundary        p p p
comm_modify     mode single vel yes


region      boxid block 0.0     $L      0.0       $L      0.0       $L
region      boxid block 0.0     5.4994      0.0       $L      0.0       $L
region      boxid block 0.0     5.4994      0.0       5.4994      0.0       $L
region      boxid block 0.0     5.4994      0.0       5.4994      0.0       5.4994
#create_box  1 boxid
include create_box.in
create_box 1 boxid
Created orthogonal box = (0 0 0) to (5.4994 5.4994 5.4994)
  1 by 1 by 1 MPI processor grid


######
include create_np.in
create_atoms 1 random 54 1511 boxid
Created 54 atoms
  using lattice units in orthogonal box = (0 0 0) to (5.4994 5.4994 5.4994)
  create_atoms CPU = 0.000 seconds
velocity    all create 1.0 87287 dist gaussian

#####
include particles.in
set type 1 diameter 1.0
Setting atom values ...
  54 settings made for diameter
set type 1 mass 26.0
Setting atom values ...
  54 settings made for mass

###
fix 1 all langevin 1.0 1.0 0.1 12345
fix 2 all nve/sphere

###
pair_style lj/cut 1.
include pots_lj_lan.in
pair_coeff 1 1 10.0 1.0 1.122462048309373
pair_modify shift yes



minimize          1.0e-4 1.0e-6 1000 1000
Generated 0 of 0 mixed pair_coeff terms from geometric mixing rule
Neighbor list info ...
  update: every = 1 steps, delay = 0 steps, check = yes
  max neighbors/atom: 2000, page size: 100000
  master list distance cutoff = 1.422462
  ghost atom cutoff = 1.422462
  binsize = 0.71123102, bins = 8 8 8
  1 neighbor lists, perpetual/occasional/extra = 1 0 0
  (1) pair lj/cut, perpetual
      attributes: half, newton off
      pair build: half/bin/newtoff
      stencil: full/bin/3d
      bin: standard
Per MPI rank memory allocation (min/avg/max) = 5.441 | 5.441 | 5.441 Mbytes
   Step          Temp          E_pair         E_mol          TotEng         Press     
         0   49.656342      1.8793733e+08  0              1.879374e+08   2.4408238e+08
        27   49.656342      3.4056615e-08  0              73.105171      15.82368     
Loop time of 0.000564422 on 1 procs for 27 steps with 54 atoms

491.5% CPU use with 1 MPI tasks x 1 OpenMP threads

Minimization stats:
  Stopping criterion = quadratic factors are zero
  Energy initial, next-to-last, final = 
      187937325.155657 3.40566152727488e-08 3.40566152727488e-08
  Force two-norm initial, final = 8.5191987e+11 0.064869334
  Force max component initial, final = 5.5148024e+11 0.04107881
  Final line search alpha, max atom move = 0.125 0.0051348512
  Iterations, force evaluations = 27 81

MPI task timing breakdown:
Section |  min time  |  avg time  |  max time  |%varavg| %total
---------------------------------------------------------------
Pair    | 0.00010514 | 0.00010514 | 0.00010514 |   0.0 | 18.63
Neigh   | 0.0002161  | 0.0002161  | 0.0002161  |   0.0 | 38.29
Comm    | 0.00013354 | 0.00013354 | 0.00013354 |   0.0 | 23.66
Output  | 0          | 0          | 0          |   0.0 |  0.00
Modify  | 0          | 0          | 0          |   0.0 |  0.00
Other   |            | 0.0001096  |            |       | 19.42

Nlocal:             54 ave          54 max          54 min
Histogram: 1 0 0 0 0 0 0 0 0 0
Nghost:            121 ave         121 max         121 min
Histogram: 1 0 0 0 0 0 0 0 0 0
Neighs:            150 ave         150 max         150 min
Histogram: 1 0 0 0 0 0 0 0 0 0

Total # of neighbors = 150
Ave neighs/atom = 2.7777778
Neighbor list builds = 9
Dangerous builds = 0

thermo_style custom step temp ke pe etotal
thermo 500
timestep 0.001
#dump    id all custom 5000 out_lan_${outfile}.lammpstrj id type radius mass xu yu zu vx vy vz fx fy fz
dump    id all custom 5000 out_lan_${outfile}.lammpstrj id type radius mass x y z
dump    id all custom 5000 out_lan_1708720081.lammpstrj id type radius mass x y z
run 100000
Generated 0 of 0 mixed pair_coeff terms from geometric mixing rule
Per MPI rank memory allocation (min/avg/max) = 4.316 | 4.316 | 4.316 Mbytes
   Step          Temp          KinEng         PotEng         TotEng    
        27   49.656342      73.105171      3.4056615e-08  73.105171    
       500   0.8931999      1.3149887      0.13553217     1.4505209    
      1000   1.0995923      1.6188442      0.17117676     1.790021     
      1500   1.0925059      1.6084115      0.21685795     1.8252694    
      2000   1.0661189      1.5695639      0.22465197     1.7942159    
      2500   1.1444022      1.6848143      0.17577147     1.8605858    
      3000   0.92062525     1.3553649      0.073430152    1.4287951    
      3500   1.1413993      1.6803934      0.091319727    1.7717131    
      4000   0.96306734     1.4178491      0.12648738     1.5443365    
      4500   1.0846512      1.5968476      0.068254414    1.665102     
      5000   1.0644401      1.5670923      0.045683745    1.6127761    
      5500   1.0015789      1.4745467      0.09499963     1.5695463    
      6000   0.95709478     1.4090562      0.19580024     1.6048564    
      6500   1.0472975      1.5418547      0.10369103     1.6455457    
      7000   1.1170849      1.6445972      0.09636549     1.7409627    
      7500   0.89083951     1.3115137      0.18938138     1.5008951    
      8000   1.080232       1.5903416      0.099324915    1.6896665    
      8500   0.97175023     1.4306323      0.10767803     1.5383103    
      9000   1.0064769      1.4817576      0.10817966     1.5899373    
      9500   0.94614124     1.3929302      0.051155849    1.444086     
     10000   1.2134534      1.786473       0.066152638    1.8526257    
     10500   1.1258548      1.6575085      0.070132576    1.7276411    
     11000   0.94291395     1.3881789      0.12054619     1.5087251    
     11500   0.87345401     1.2859184      0.048074825    1.3339932    
     12000   1.1078242      1.6309634      0.057224027    1.6881874    
     12500   1.0761812      1.5843778      0.14592522     1.7303031    
     13000   0.9438734      1.3895914      0.18192128     1.5715127    
     13500   0.90126201     1.326858       0.063373643    1.3902316    
     14000   0.9431878      1.388582       0.077381627    1.4659637    
     14500   0.97588781     1.4367237      0.082100595    1.5188243    
     15000   1.1450473      1.6857641      0.032881829    1.7186459    
     15500   0.88940623     1.3094036      0.081749517    1.3911531    
     16000   1.0167319      1.4968553      0.075659491    1.5725148    
     16500   0.73656673     1.0843899      0.067263297    1.1516532    
     17000   1.2291608      1.8095979      0.081812023    1.8914099    
     17500   0.94537936     1.3918085      0.070232164    1.4620407    
     18000   0.97043816     1.4287006      0.12587073     1.5545714    
     18500   0.99782611     1.4690218      0.091415607    1.5604374    
     19000   1.0539758      1.5516866      0.052523707    1.6042103    
     19500   1.0261875      1.510776       0.089022698    1.5997987    
     20000   1.0197396      1.5012833      0.11539167     1.616675     
     20500   1.010863       1.4882149      0.10221265     1.5904276    
     21000   0.9861413      1.4518191      0.08767583     1.539495     
     21500   1.0729279      1.5795883      0.069140241    1.6487286    
     22000   1.0962057      1.6138584      0.037449988    1.6513084    
     22500   0.97624749     1.4372532      0.0409904      1.4782436    
     23000   0.99068795     1.4585128      0.11945349     1.5779663    
     23500   1.0165509      1.4965888      0.077871616    1.5744604    
     24000   0.92373274     1.3599399      0.072877206    1.4328171    
     24500   1.1373197      1.6743874      0.11124411     1.7856315    
     25000   0.95271491     1.4026081      0.051649314    1.4542574    
     25500   0.7928503      1.1672518      0.044433802    1.2116856    
     26000   1.0176268      1.4981727      0.036084445    1.5342572    
     26500   0.99409828     1.4635336      0.060007253    1.5235408    
     27000   1.0644906      1.5671667      0.073918746    1.6410854    
     27500   0.88386398     1.3012442      0.18975055     1.4909947    
     28000   1.2176523      1.7926548      0.11097499     1.9036298    
     28500   1.1031973      1.6241516      0.024335248    1.6484868    
     29000   1.0291258      1.5151019      0.067032692    1.5821346    
     29500   1.0033869      1.4772085      0.093364928    1.5705735    
     30000   1.0851523      1.5975853      0.065911941    1.6634973    
     30500   1.1476197      1.6895513      0.15457821     1.8441295    
     31000   1.1119254      1.6370013      0.075694366    1.7126957    
     31500   0.95837007     1.4109337      0.025240812    1.4361745    
     32000   1.0361599      1.5254576      0.10074857     1.6262061    
     32500   0.89193987     1.3131337      0.091812971    1.4049467    
     33000   1.185113       1.7447497      0.14849865     1.8932484    
     33500   1.0730474      1.5797642      0.056594013    1.6363582    
     34000   1.0054599      1.4802604      0.081455405    1.5617158    
     34500   1.0323714      1.5198801      0.12222246     1.6421025    
     35000   0.89700978     1.3205977      0.14036653     1.4609643    
     35500   0.95495073     1.4058997      0.11024427     1.5161439    
     36000   1.0967685      1.6146869      0.14212446     1.7568114    
     36500   1.0928494      1.6089171      0.072232545    1.6811497    
     37000   1.1387259      1.6764576      0.023261044    1.6997187    
     37500   0.87251622     1.2845378      0.077607421    1.3621452    
     38000   1.0597756      1.5602252      0.083951478    1.6441767    
     38500   1.0704923      1.5760025      0.11289781     1.6889003    
     39000   1.2460032      1.8343936      0.058329903    1.8927235    
     39500   0.992613       1.4613469      0.019170281    1.4805172    
     40000   1.052363       1.5493122      0.07830494     1.6276171    
     40500   1.077563       1.5864122      0.13763623     1.7240484    
     41000   1.1939335      1.7577355      0.091034645    1.8487701    
     41500   0.98479034     1.4498302      0.024992205    1.4748224    
     42000   0.89668134     1.3201142      0.061156368    1.3812706    
     42500   1.0923909      1.6082421      0.023448423    1.6316905    
     43000   0.88799907     1.307332       0.041678069    1.34901      
     43500   0.93390556     1.3749165      0.036064069    1.4109806    
     44000   1.2149617      1.7886937      0.02599533     1.814689     
     44500   0.80135131     1.1797672      0.089578237    1.2693454    
     45000   1.0070608      1.4826173      0.11454823     1.5971655    
     45500   1.0397703      1.5307729      0.022556909    1.5533298    
     46000   0.85099379     1.252852       0.13313796     1.3859899    
     46500   1.1588341      1.7060614      0.11744517     1.8235065    
     47000   0.95667867     1.4084436      0.08644202     1.4948856    
     47500   1.0472841      1.541835       0.050641067    1.592476     
     48000   1.0420187      1.534083       0.080543885    1.6146269    
     48500   0.96868752     1.4261233      0.19989002     1.6260133    
     49000   1.2436589      1.8309423      0.048948361    1.8798907    
     49500   0.91479068     1.3467752      0.076389347    1.4231645    
     50000   1.0130043      1.4913674      0.039719752    1.5310872    
     50500   0.88364615     1.3009235      0.020292295    1.3212158    
     51000   1.0786423      1.5880011      0.16730909     1.7553102    
     51500   0.94222058     1.3871581      0.013317476    1.4004755    
     52000   1.0999827      1.619419       0.066882949    1.6863019    
     52500   0.87697251     1.2910984      0.12879692     1.4198953    
     53000   0.93605        1.3780736      0.12818664     1.5062603    
     53500   0.84018414     1.2369378      0.032822001    1.2697598    
     54000   1.0171514      1.4974729      0.13283682     1.6303097    
     54500   1.1971778      1.7625118      0.12753378     1.8900456    
     55000   0.9428829      1.3881332      0.059017503    1.4471507    
     55500   0.96778367     1.4247926      0.031012435    1.4558051    
     56000   0.91198714     1.3426477      0.082551736    1.4251995    
     56500   0.98365106     1.4481529      0.09319586     1.5413488    
     57000   1.0109322      1.4883168      0.093350668    1.5816675    
     57500   1.1075096      1.6305002      0.046139877    1.6766401    
     58000   1.0683216      1.5728068      0.17913481     1.7519416    
     58500   1.2419998      1.8284997      0.053293947    1.8817937    
     59000   1.1796156      1.7366563      0.037616973    1.7742733    
     59500   1.097917       1.6163778      0.013192307    1.6295701    
     60000   1.0204951      1.5023956      0.02906609     1.5314617    
     60500   0.89013587     1.3104778      0.10383466     1.4143125    
     61000   1.0238896      1.507393       0.019237342    1.5266303    
     61500   0.86573445     1.2745535      0.044731628    1.3192851    
     62000   0.95605329     1.4075229      0.1076031      1.515126     
     62500   1.050732       1.546911       0.040117706    1.5870287    
     63000   0.98952575     1.4568018      0.10383187     1.5606337    
     63500   1.0247209      1.5086169      0.012818104    1.521435     
     64000   0.98838756     1.4551261      0.099903055    1.5550292    
     64500   0.99523644     1.4652092      0.076267086    1.5414763    
     65000   1.1692133      1.7213418      0.066770493    1.7881123    
     65500   1.0002059      1.4725254      0.093754952    1.5662804    
     66000   0.99311854     1.4620912      0.099656268    1.5617475    
     66500   0.96244908     1.4169389      0.10649759     1.5234365    
     67000   1.0978578      1.6162907      0.089141698    1.7054324    
     67500   0.93552858     1.377306       0.09073246     1.4680384    
     68000   1.1449159      1.6855707      0.10000451     1.7855752    
     68500   1.0374763      1.5273957      0.097642698    1.6250384    
     69000   0.94554343     1.39205        0.08614628     1.4781963    
     69500   0.76430093     1.1252208      0.058502557    1.1837234    
     70000   1.0569885      1.5561219      0.10810738     1.6642293    
     70500   1.0661719      1.569642       0.072539215    1.6421812    
     71000   0.96460886     1.4201186      0.09961386     1.5197325    
     71500   1.1436917      1.6837683      0.062759775    1.7465281    
     72000   0.85283227     1.2555586      0.029693859    1.2852525    
     72500   1.2103452      1.7818972      0.037844054    1.8197412    
     73000   0.95678526     1.4086005      0.019841563    1.4284421    
     73500   1.0731223      1.5798746      0.086738928    1.6666135    
     74000   1.0358061      1.5249368      0.10324709     1.6281839    
     74500   1.1212627      1.6507479      0.026305408    1.6770533    
     75000   0.98110669     1.4444071      0.07161127     1.5160183    
     75500   1.056617       1.555575       0.00078055632  1.5563556    
     76000   1.2897115      1.8987419      0.030320232    1.9290621    
     76500   0.97641262     1.4374964      0.031867962    1.4693643    
     77000   1.0434336      1.5361661      0.068817218    1.6049833    
     77500   1.1018136      1.6221144      0.048641766    1.6707562    
     78000   1.0450952      1.5386124      0.041209381    1.5798217    
     78500   1.0042481      1.4784764      0.020624714    1.4991012    
     79000   1.0972325      1.6153701      0.063445715    1.6788158    
     79500   0.90130614     1.3269229      0.067616674    1.3945396    
     80000   1.1426126      1.6821797      0.11084744     1.7930271    
     80500   1.0255545      1.5098441      0.047301318    1.5571454    
     81000   0.74441175     1.0959395      0.081617317    1.1775568    
     81500   1.1836418      1.7425838      0.022574433    1.7651583    
     82000   0.86887278     1.2791738      0.066798499    1.3459723    
     82500   1.1186204      1.6468577      0.074940696    1.7217984    
     83000   0.99424953     1.4637563      0.066225397    1.5299816    
     83500   1.0336792      1.5218054      0.11134318     1.6331486    
     84000   1.0048967      1.4794313      0.027694943    1.5071262    
     84500   0.9394814      1.3831254      0.068718309    1.4518437    
     85000   0.96642923     1.4227986      0.031962149    1.4547607    
     85500   0.89860801     1.3229507      0.17097711     1.4939278    
     86000   1.1057353      1.6278881      0.029340665    1.6572287    
     86500   0.80954809     1.1918347      0.053827128    1.2456618    
     87000   1.0731112      1.5798581      0.069157999    1.6490161    
     87500   1.1856437      1.745531       0.0097498498   1.7552809    
     88000   1.1738083      1.7281067      0.073757166    1.8018639    
     88500   1.133282       1.668443       0.067199321    1.7356423    
     89000   0.9303279      1.3696494      0.12582377     1.4954732    
     89500   1.0711889      1.5770281      0.035099222    1.6121274    
     90000   0.7806629      1.1493093      0.081218204    1.2305275    
     90500   0.96777714     1.424783       0.10525771     1.5300407    
     91000   1.0401506      1.5313329      0.043461459    1.5747944    
     91500   0.97952057     1.4420719      0.14503537     1.5871073    
     92000   0.99826475     1.4696676      0.09516119     1.5648287    
     92500   0.93433805     1.3755532      0.15280895     1.5283622    
     93000   0.83465697     1.2288005      0.11802836     1.3468289    
     93500   1.1047533      1.6264423      0.10837383     1.7348161    
     94000   1.0269588      1.5119116      0.077635589    1.5895472    
     94500   0.95565034     1.4069297      0.016523668    1.4234533    
     95000   1.0864996      1.5995688      0.06652168     1.6660905    
     95500   1.2151851      1.7890225      0.021374528    1.810397     
     96000   1.0552703      1.5535924      0.073646301    1.6272387    
     96500   0.9968236      1.4675459      0.11031399     1.5778599    
     97000   0.91163832     1.3421342      0.099217357    1.4413516    
     97500   1.0202303      1.5020058      0.11811151     1.6201173    
     98000   1.0018991      1.4750181      0.050218956    1.5252371    
     98500   0.95883952     1.4116248      0.025230945    1.4368558    
     99000   0.85526901     1.259146       0.064038267    1.3231843    
     99500   0.80187664     1.1805406      0.032444782    1.2129854    
    100000   1.1598272      1.7075234      0.048994615    1.756518     
    100027   1.1121562      1.637341       0.032110298    1.6694513    
Loop time of 0.46304 on 1 procs for 100000 steps with 54 atoms

Performance: 18659310.205 tau/day, 215964.238 timesteps/s, 11.662 Matom-step/s
149.0% CPU use with 1 MPI tasks x 1 OpenMP threads

MPI task timing breakdown:
Section |  min time  |  avg time  |  max time  |%varavg| %total
---------------------------------------------------------------
Pair    | 0.046207   | 0.046207   | 0.046207   |   0.0 |  9.98
Neigh   | 0.0059266  | 0.0059266  | 0.0059266  |   0.0 |  1.28
Comm    | 0.10063    | 0.10063    | 0.10063    |   0.0 | 21.73
Output  | 0.0033683  | 0.0033683  | 0.0033683  |   0.0 |  0.73
Modify  | 0.28616    | 0.28616    | 0.28616    |   0.0 | 61.80
Other   |            | 0.02075    |            |       |  4.48

Nlocal:             54 ave          54 max          54 min
Histogram: 1 0 0 0 0 0 0 0 0 0
Nghost:            146 ave         146 max         146 min
Histogram: 1 0 0 0 0 0 0 0 0 0
Neighs:            106 ave         106 max         106 min
Histogram: 1 0 0 0 0 0 0 0 0 0

Total # of neighbors = 106
Ave neighs/atom = 1.962963
Neighbor list builds = 266
Dangerous builds = 0

write_data data.${outfile} nocoeff nofix
write_data data.1708720081 nocoeff nofix
System init for write_data ...
Generated 0 of 0 mixed pair_coeff terms from geometric mixing rule
Total wall time: 0:00:00
