LAMMPS (21 Nov 2023)
OMP_NUM_THREADS environment is not set. Defaulting to 1 thread. (src/comm.cpp:98)
  using 1 OpenMP thread(s) per MPI task
###variable outfile string L15.17
###variable L equal 15.17

units lj

newton off
atom_style      sphere
boundary        p p p
comm_modify     mode single vel yes


region      boxid block 0.0     $L      0.0       $L      0.0       $L
region      boxid block 0.0     5.499389585946451      0.0       $L      0.0       $L
region      boxid block 0.0     5.499389585946451      0.0       5.499389585946451      0.0       $L
region      boxid block 0.0     5.499389585946451      0.0       5.499389585946451      0.0       5.499389585946451
#create_box  1 boxid
include create_box.in
create_box 1 boxid
Created orthogonal box = (0 0 0) to (5.4993896 5.4993896 5.4993896)
  1 by 1 by 1 MPI processor grid


######
include create_np.in
create_atoms 1 random 54 4938 boxid
Created 54 atoms
  using lattice units in orthogonal box = (0 0 0) to (5.4993896 5.4993896 5.4993896)
  create_atoms CPU = 0.001 seconds
velocity    all create 1.0 87287 dist gaussian

#####
include particles.in
set type 1 diameter 1.0
Setting atom values ...
  54 settings made for diameter
set type 1 mass 26.0
Setting atom values ...
  54 settings made for mass

###
fix 1 all langevin 1.0 1.0 0.1 12345
fix 2 all nve/sphere

###
pair_style lj/cut 1.
include pots_lj_lan.in
pair_coeff 1 1 10.0 1.0 1.122462048309373
pair_modify shift yes



minimize          1.0e-4 1.0e-6 1000 1000
Generated 0 of 0 mixed pair_coeff terms from geometric mixing rule
Neighbor list info ...
  update: every = 1 steps, delay = 0 steps, check = yes
  max neighbors/atom: 2000, page size: 100000
  master list distance cutoff = 1.422462
  ghost atom cutoff = 1.422462
  binsize = 0.71123102, bins = 8 8 8
  1 neighbor lists, perpetual/occasional/extra = 1 0 0
  (1) pair lj/cut, perpetual
      attributes: half, newton off
      pair build: half/bin/newtoff
      stencil: full/bin/3d
      bin: standard
Per MPI rank memory allocation (min/avg/max) = 5.441 | 5.441 | 5.441 Mbytes
   Step          Temp          E_pair         E_mol          TotEng         Press     
         0   49.656342      8569927.3      0              8570000.4      11131708     
        23   49.656342      6.4476227e-11  0              73.105171      15.823671    
Loop time of 0.000504132 on 1 procs for 23 steps with 54 atoms

664.7% CPU use with 1 MPI tasks x 1 OpenMP threads

Minimization stats:
  Stopping criterion = quadratic factors are zero
  Energy initial, next-to-last, final = 
      8569927.33030747 6.44762268267287e-11 6.44762268267287e-11
  Force two-norm initial, final = 3.0384741e+10 0.0028211795
  Force max component initial, final = 2.0171786e+10 0.0016234559
  Final line search alpha, max atom move = 1 0.0016234559
  Iterations, force evaluations = 23 72

MPI task timing breakdown:
Section |  min time  |  avg time  |  max time  |%varavg| %total
---------------------------------------------------------------
Pair    | 0.00010133 | 0.00010133 | 0.00010133 |   0.0 | 20.10
Neigh   | 0.00016296 | 0.00016296 | 0.00016296 |   0.0 | 32.33
Comm    | 0.000132   | 0.000132   | 0.000132   |   0.0 | 26.18
Output  | 0          | 0          | 0          |   0.0 |  0.00
Modify  | 0          | 0          | 0          |   0.0 |  0.00
Other   |            | 0.0001078  |            |       | 21.39

Nlocal:             54 ave          54 max          54 min
Histogram: 1 0 0 0 0 0 0 0 0 0
Nghost:            132 ave         132 max         132 min
Histogram: 1 0 0 0 0 0 0 0 0 0
Neighs:            155 ave         155 max         155 min
Histogram: 1 0 0 0 0 0 0 0 0 0

Total # of neighbors = 155
Ave neighs/atom = 2.8703704
Neighbor list builds = 6
Dangerous builds = 0

thermo_style custom step temp ke pe etotal
thermo 500
timestep 0.001
#dump    id all custom 5000 out_lan_${outfile}.lammpstrj id type radius mass xu yu zu vx vy vz fx fy fz
dump    id all custom 5000 out_lan_${outfile}.lammpstrj id type radius mass x y z
dump    id all custom 5000 out_lan_1708805151.lammpstrj id type radius mass x y z
run 100000
Generated 0 of 0 mixed pair_coeff terms from geometric mixing rule
Per MPI rank memory allocation (min/avg/max) = 4.316 | 4.316 | 4.316 Mbytes
   Step          Temp          KinEng         PotEng         TotEng    
        23   49.656342      73.105171      6.4476227e-11  73.105171    
       500   1.1604307      1.7084118      0.21602115     1.9244329    
      1000   1.1088603      1.6324887      0.1586077      1.7910964    
      1500   1.2116656      1.783841       0.17206595     1.955907     
      2000   1.1260237      1.6577571      0.097186199    1.7549433    
      2500   1.0664926      1.5701142      0.17192939     1.7420436    
      3000   0.89576774     1.3187692      0.20233517     1.5211044    
      3500   1.0522525      1.5491495      0.17857254     1.727722     
      4000   1.0277175      1.5130286      0.1103499      1.6233785    
      4500   1.034902       1.5236058      0.15623537     1.6798411    
      5000   1.041496       1.5333136      0.201701       1.7350146    
      5500   1.0458358      1.5397028      0.12069766     1.6604004    
      6000   1.0347887      1.5234389      0.07809812     1.601537     
      6500   0.99412916     1.463579       0.12596919     1.5895482    
      7000   1.0868782      1.6001262      0.15169047     1.7518167    
      7500   1.0164913      1.4965011      0.13774221     1.6342433    
      8000   1.0640302      1.566489       0.13680891     1.7032979    
      8500   0.94173195     1.3864387      0.057774769    1.4442135    
      9000   0.97103204     1.4295749      0.15648184     1.5860568    
      9500   1.038113       1.528333       0.096724852    1.6250578    
     10000   1.1860052      1.7460631      0.12744949     1.8735126    
     10500   1.1352848      1.6713915      0.11128264     1.7826741    
     11000   0.82925866     1.220853       0.16040994     1.381263     
     11500   0.87662557     1.2905877      0.049797534    1.3403852    
     12000   1.0416601      1.5335551      0.11971632     1.6532715    
     12500   1.1476171      1.6895474      0.18197751     1.8715249    
     13000   1.0266508      1.5114581      0.064515746    1.5759739    
     13500   0.86495301     1.273403       0.17899674     1.4523998    
     14000   0.95862803     1.4113135      0.19299124     1.6043047    
     14500   1.053223       1.5505783      0.087004284    1.6375826    
     15000   1.0609006      1.5618814      0.072227731    1.6341091    
     15500   0.9258952      1.3631235      0.15649463     1.5196181    
     16000   1.0583856      1.5581788      0.062223221    1.6204021    
     16500   0.74755349     1.1005649      0.058588531    1.1591534    
     17000   1.1057938      1.6279741      0.08512109     1.7130952    
     17500   0.92762433     1.3656692      0.051130367    1.4167995    
     18000   0.95320775     1.4033336      0.15175951     1.5550931    
     18500   0.89249084     1.3139448      0.044790136    1.358735     
     19000   1.0314969      1.5185926      0.1353884      1.653981     
     19500   1.0417196      1.5336427      0.025922121    1.5595648    
     20000   0.92783151     1.3659742      0.095487596    1.4614618    
     20500   0.9910319      1.4590192      0.12852572     1.5875449    
     21000   1.0291918      1.515199       0.10300546     1.6182045    
     21500   1.0039682      1.4780643      0.12002964     1.5980939    
     22000   1.1086702      1.6322089      0.10737212     1.739581     
     22500   1.0514228      1.547928       0.077034647    1.6249627    
     23000   0.913129       1.3443288      0.14440583     1.4887346    
     23500   0.96179931     1.4159823      0.10282775     1.5188101    
     24000   0.9029468      1.3293383      0.062630578    1.3919689    
     24500   1.093672       1.6101283      0.064621014    1.6747493    
     25000   0.96754606     1.4244428      0.049317611    1.4737604    
     25500   0.84052486     1.2374394      0.066722438    1.3041618    
     26000   0.95115864     1.4003169      0.062966676    1.4632836    
     26500   0.99404171     1.4634503      0.10832946     1.5717798    
     27000   1.0011724      1.4739482      0.12215752     1.5961057    
     27500   0.93995797     1.383827       0.11980039     1.5036274    
     28000   1.1761996      1.7316272      0.033326994    1.7649542    
     28500   1.0733253      1.5801734      0.055556798    1.6357302    
     29000   1.0483298      1.5433744      0.023023626    1.566398     
     29500   1.0166277      1.4967019      0.12076937     1.6174713    
     30000   1.0832662      1.5948086      0.021951111    1.6167597    
     30500   1.2107413      1.7824802      0.068331522    1.8508117    
     31000   1.1705821      1.723357       0.083910643    1.8072677    
     31500   0.98851749     1.4553174      0.1485949      1.6039123    
     32000   0.97254086     1.4317963      0.13244845     1.5642447    
     32500   0.89342451     1.3153194      0.093418346    1.4087378    
     33000   1.2164212      1.7908423      0.16575909     1.9566014    
     33500   1.117892       1.6457855      0.14919488     1.7949804    
     34000   0.95948984     1.4125823      0.015661433    1.4282437    
     34500   1.0158183      1.4955103      0.034026661    1.529537     
     35000   0.9144212      1.3462312      0.059805205    1.4060364    
     35500   0.92853864     1.3670152      0.075713485    1.4427287    
     36000   1.1457868      1.6868528      0.038104983    1.7249578    
     36500   1.0279105      1.5133127      0.17297951     1.6862922    
     37000   1.159109       1.7064661      0.046997984    1.7534641    
     37500   0.83339809     1.2269472      0.083080102    1.3100273    
     38000   1.0835401      1.5952117      0.064563093    1.6597748    
     38500   1.078838       1.5882892      0.11726934     1.7055585    
     39000   1.3546503      1.9943462      0.066886124    2.0612323    
     39500   1.0786616      1.5880295      0.054149492    1.642179     
     40000   1.0945212      1.6113784      0.041118573    1.652497     
     40500   1.1203959      1.6494717      0.11496106     1.7644328    
     41000   1.1156312      1.642457       0.099547151    1.7420042    
     41500   0.93863018     1.3818722      0.1168872      1.4987594    
     42000   0.86027047     1.2665093      0.10433044     1.3708397    
     42500   1.0448711      1.5382824      0.099702671    1.6379851    
     43000   0.93461664     1.3759634      0.083999011    1.4599624    
     43500   0.89490807     1.3175035      0.12058622     1.4380898    
     44000   1.1078357      1.6309804      0.053004586    1.683985     
     44500   0.89286544     1.3144963      0.15048861     1.464985     
     45000   1.0211312      1.503332       0.029723539    1.5330556    
     45500   1.0401788      1.5313744      0.15336171     1.6847361    
     46000   0.92434159     1.3608362      0.063295453    1.4241317    
     46500   1.1841546      1.7433388      0.1552626      1.8986014    
     47000   0.9984862      1.4699936      0.13003804     1.6000316    
     47500   0.9682135      1.4254254      0.14334612     1.5687716    
     48000   1.0991304      1.6181642      0.020745936    1.6389101    
     48500   1.0139707      1.4927902      0.016693576    1.5094838    
     49000   1.2484978      1.8380662      0.11381501     1.9518812    
     49500   0.95229452     1.4019892      0.043010472    1.4449996    
     50000   0.95490037     1.4058255      0.047893653    1.4537192    
     50500   0.91605284     1.3486333      0.029736325    1.3783697    
     51000   1.1211091      1.6505217      0.058282506    1.7088042    
     51500   1.0320032      1.5193381      0.046025531    1.5653636    
     52000   1.1439555      1.6841567      0.034771086    1.7189278    
     52500   0.93137023     1.3711839      0.080418929    1.4516029    
     53000   0.95356461     1.403859       0.076458299    1.4803173    
     53500   0.80083336     1.1790047      0.11061969     1.2896244    
     54000   0.92789809     1.3660722      0.13276291     1.4988351    
     54500   1.3133921      1.9336051      0.14615917     2.0797642    
     55000   0.91726678     1.3504205      0.046025112    1.3964456    
     55500   0.94860046     1.3965507      0.030768398    1.4273191    
     56000   0.89657096     1.3199517      0.052009139    1.3719608    
     56500   0.93304809     1.3736541      0.044016866    1.417671     
     57000   0.89061078     1.311177       0.066935893    1.3781129    
     57500   1.2040942      1.7726943      0.037704023    1.8103983    
     58000   0.95916777     1.4121081      0.10753942     1.5196475    
     58500   1.1746008      1.7292734      0.031120877    1.7603942    
     59000   1.1266328      1.6586538      0.20797412     1.8666279    
     59500   1.1051011      1.6269544      0.075960688    1.7029151    
     60000   0.98579494     1.4513092      0.023707178    1.4750164    
     60500   0.89034025     1.3107787      0.052293743    1.3630724    
     61000   1.0343004      1.52272        0.09212093     1.6148409    
     61500   0.87093048     1.2822032      0.068719781    1.350923     
     62000   1.0150959      1.4944468      0.051859171    1.5463059    
     62500   1.0283941      1.5140247      0.059672627    1.5736973    
     63000   1.0036854      1.4776479      0.07436114     1.5520091    
     63500   0.97139734     1.4301127      0.16816339     1.5982761    
     64000   1.000802       1.4734029      0.091034046    1.564437     
     64500   0.93746243     1.380153       0.070994372    1.4511474    
     65000   1.1406019      1.6792195      0.10217262     1.7813922    
     65500   0.90650142     1.3345715      0.22514674     1.5597183    
     66000   0.99128593     1.4593932      0.13332529     1.5927185    
     66500   1.0032532      1.4770117      0.10374783     1.5807595    
     67000   1.096181       1.6138221      0.06245773     1.6762798    
     67500   1.0333414      1.5213081      0.10951987     1.630828     
     68000   1.1291472      1.6623556      0.21638316     1.8787387    
     68500   0.95680104     1.4086238      0.11955628     1.52818      
     69000   0.80039458     1.1783587      0.23912696     1.4174856    
     69500   0.82338247     1.212202       0.28675903     1.498961     
     70000   1.0947582      1.6117274      0.096641112    1.7083685    
     70500   1.0444711      1.5376935      0.048613344    1.5863069    
     71000   1.0336294      1.5217322      0.049872065    1.5716043    
     71500   1.06376        1.5660911      0.11719628     1.6832874    
     72000   0.78713392     1.158836       0.077985763    1.2368218    
     72500   1.1323016      1.6669995      0.0339029      1.7009024    
     73000   0.9847382      1.4497535      0.072961078    1.5227145    
     73500   1.1296821      1.6631431      0.041613816    1.704757     
     74000   1.1156204      1.6424411      0.089432722    1.7318739    
     74500   1.0989652      1.617921       0.069418795    1.6873398    
     75000   1.0063044      1.4815036      0.091383702    1.5728873    
     75500   1.0904278      1.6053521      0.085025733    1.6903778    
     76000   1.2340621      1.8168137      0.052492766    1.8693065    
     76500   0.9151776      1.3473448      0.051944198    1.399289     
     77000   1.1041397      1.6255391      0.065324214    1.6908633    
     77500   1.0228635      1.5058823      0.033086575    1.5389689    
     78000   1.0663544      1.5699106      0.089680137    1.6595907    
     78500   1.0067837      1.4822093      0.10482822     1.5870375    
     79000   1.1139306      1.6399534      0.024172562    1.6641259    
     79500   0.91345717     1.3448119      0.17607428     1.5208862    
     80000   1.2013953      1.7687208      0.24384879     2.0125696    
     80500   0.96425606     1.4195992      0.090902807    1.510502     
     81000   0.78402656     1.1542613      0.066658489    1.2209198    
     81500   1.3227998      1.9474552      0.049315818    1.996771     
     82000   0.8588196      1.2643733      0.061907897    1.3262812    
     82500   1.1641566      1.7138972      0.059362021    1.7732592    
     83000   1.0587385      1.5586984      0.023878347    1.5825767    
     83500   1.0674983      1.5715947      0.036896259    1.6084909    
     84000   0.86838917     1.2784618      0.23282283     1.5112847    
     84500   1.0578265      1.5573557      0.092768044    1.6501238    
     85000   0.96151972     1.4155707      0.060965478    1.4765362    
     85500   0.97204097     1.4310603      0.11902168     1.550082     
     86000   1.0873153      1.6007697      0.060218367    1.6609881    
     86500   0.77080658     1.1347986      0.083561264    1.2183598    
     87000   1.0382214      1.5284926      0.074872358    1.6033649    
     87500   1.1542736      1.6993472      0.065832924    1.7651801    
     88000   1.1422172      1.6815976      0.096362804    1.7779604    
     88500   1.1352959      1.6714079      0.15154157     1.8229494    
     89000   1.0380605      1.5282557      0.034932223    1.5631879    
     89500   0.95546274     1.4066535      0.040357179    1.4470107    
     90000   0.75342348     1.1092068      0.12284353     1.2320503    
     90500   0.92659867     1.3641592      0.13480336     1.4989625    
     91000   1.0520127      1.5487965      0.047609499    1.596406     
     91500   0.99740672     1.4684043      0.12420274     1.5926071    
     92000   0.9991286      1.4709393      0.12008429     1.5910236    
     92500   0.96545255     1.4213607      0.047311484    1.4686722    
     93000   0.88493111     1.3028152      0.098711762    1.401527     
     93500   1.0030397      1.4766973      0.059023208    1.5357205    
     94000   1.0636568      1.5659391      0.099258413    1.6651975    
     94500   0.97759211     1.4392328      0.0146774      1.4539102    
     95000   1.0008619      1.4734911      0.086152233    1.5596433    
     95500   1.1416702      1.6807923      0.080116009    1.7609083    
     96000   1.0564026      1.5552594      0.0069092085   1.5621686    
     96500   0.96017314     1.4135882      0.17367407     1.5872623    
     97000   0.90424747     1.3312532      0.22671713     1.5579703    
     97500   1.1027606      1.6235087      0.034042863    1.6575515    
     98000   0.95340485     1.4036238      0.048328319    1.4519521    
     98500   0.87745518     1.291809       0.1122936      1.4041026    
     99000   0.96503352     1.4207438      0.11298911     1.5337329    
     99500   0.95778348     1.4100701      0.023646552    1.4337167    
    100000   1.0438052      1.5367131      0.083367286    1.6200804    
    100023   1.0459467      1.539866       0.090385193    1.6302512    
Loop time of 0.536301 on 1 procs for 100000 steps with 54 atoms

Performance: 16110341.429 tau/day, 186462.285 timesteps/s, 10.069 Matom-step/s
135.4% CPU use with 1 MPI tasks x 1 OpenMP threads

MPI task timing breakdown:
Section |  min time  |  avg time  |  max time  |%varavg| %total
---------------------------------------------------------------
Pair    | 0.051792   | 0.051792   | 0.051792   |   0.0 |  9.66
Neigh   | 0.0072121  | 0.0072121  | 0.0072121  |   0.0 |  1.34
Comm    | 0.11659    | 0.11659    | 0.11659    |   0.0 | 21.74
Output  | 0.005744   | 0.005744   | 0.005744   |   0.0 |  1.07
Modify  | 0.32751    | 0.32751    | 0.32751    |   0.0 | 61.07
Other   |            | 0.02745    |            |       |  5.12

Nlocal:             54 ave          54 max          54 min
Histogram: 1 0 0 0 0 0 0 0 0 0
Nghost:            131 ave         131 max         131 min
Histogram: 1 0 0 0 0 0 0 0 0 0
Neighs:            105 ave         105 max         105 min
Histogram: 1 0 0 0 0 0 0 0 0 0

Total # of neighbors = 105
Ave neighs/atom = 1.9444444
Neighbor list builds = 269
Dangerous builds = 0

write_data data.${outfile} nocoeff nofix
write_data data.1708805151 nocoeff nofix
System init for write_data ...
Generated 0 of 0 mixed pair_coeff terms from geometric mixing rule
Total wall time: 0:00:00
