LAMMPS (21 Nov 2023)
OMP_NUM_THREADS environment is not set. Defaulting to 1 thread. (src/comm.cpp:98)
  using 1 OpenMP thread(s) per MPI task
###variable outfile string L15.17
###variable L equal 15.17

units lj

newton off
atom_style      sphere
boundary        p p p
comm_modify     mode single vel yes


region      boxid block 0.0     $L      0.0       $L      0.0       $L
region      boxid block 0.0     6.563429036687327      0.0       $L      0.0       $L
region      boxid block 0.0     6.563429036687327      0.0       6.563429036687327      0.0       $L
region      boxid block 0.0     6.563429036687327      0.0       6.563429036687327      0.0       6.563429036687327
#create_box  1 boxid
include create_box.in
create_box 1 boxid
Created orthogonal box = (0 0 0) to (6.563429 6.563429 6.563429)
  1 by 1 by 1 MPI processor grid


######
include create_np.in
create_atoms 1 random 108 5435 boxid
Created 108 atoms
  using lattice units in orthogonal box = (0 0 0) to (6.563429 6.563429 6.563429)
  create_atoms CPU = 0.000 seconds
velocity    all create 1.0 87287 dist gaussian

#####
include particles.in
set type 1 diameter 1.0
Setting atom values ...
  108 settings made for diameter
set type 1 mass 26.0
Setting atom values ...
  108 settings made for mass

###
fix 1 all langevin 1.0 1.0 0.1 12345
fix 2 all nve/sphere

###
pair_style lj/cut 1.
include pots_lj_lan.in
pair_coeff 1 1 10.0 1.0 1.122462048309373
pair_modify shift yes



minimize          1.0e-4 1.0e-6 1000 1000
Generated 0 of 0 mixed pair_coeff terms from geometric mixing rule
Neighbor list info ...
  update: every = 1 steps, delay = 0 steps, check = yes
  max neighbors/atom: 2000, page size: 100000
  master list distance cutoff = 1.422462
  ghost atom cutoff = 1.422462
  binsize = 0.71123102, bins = 10 10 10
  1 neighbor lists, perpetual/occasional/extra = 1 0 0
  (1) pair lj/cut, perpetual
      attributes: half, newton off
      pair build: half/bin/newtoff
      stencil: full/bin/3d
      bin: standard
Per MPI rank memory allocation (min/avg/max) = 5.446 | 5.446 | 5.446 Mbytes
   Step          Temp          E_pair         E_mol          TotEng         Press     
         0   49.656342      14423759       0              14423833       22041017     
        29   49.656342      8.2238743e-18  0              73.794842      18.791702    
Loop time of 0.00123186 on 1 procs for 29 steps with 108 atoms

316.5% CPU use with 1 MPI tasks x 1 OpenMP threads

Minimization stats:
  Stopping criterion = quadratic factors are zero
  Energy initial, next-to-last, final = 
      14423758.9861803 8.22387425648264e-18 8.22387425648264e-18
  Force two-norm initial, final = 9.0003447e+10 1.227262e-06
  Force max component initial, final = 6.0576951e+10 5.6965079e-07
  Final line search alpha, max atom move = 1 5.6965079e-07
  Iterations, force evaluations = 29 94

MPI task timing breakdown:
Section |  min time  |  avg time  |  max time  |%varavg| %total
---------------------------------------------------------------
Pair    | 0.00021228 | 0.00021228 | 0.00021228 |   0.0 | 17.23
Neigh   | 0.00056225 | 0.00056225 | 0.00056225 |   0.0 | 45.64
Comm    | 0.00024318 | 0.00024318 | 0.00024318 |   0.0 | 19.74
Output  | 0          | 0          | 0          |   0.0 |  0.00
Modify  | 0          | 0          | 0          |   0.0 |  0.00
Other   |            | 0.0002141  |            |       | 17.38

Nlocal:            108 ave         108 max         108 min
Histogram: 1 0 0 0 0 0 0 0 0 0
Nghost:            209 ave         209 max         209 min
Histogram: 1 0 0 0 0 0 0 0 0 0
Neighs:            291 ave         291 max         291 min
Histogram: 1 0 0 0 0 0 0 0 0 0

Total # of neighbors = 291
Ave neighs/atom = 2.6944444
Neighbor list builds = 11
Dangerous builds = 0

thermo_style custom step temp ke pe etotal
thermo 500
timestep 0.001
#dump    id all custom 5000 out_lan_${outfile}.lammpstrj id type radius mass xu yu zu vx vy vz fx fy fz
dump    id all custom 5000 out_lan_${outfile}.lammpstrj id type radius mass x y z
dump    id all custom 5000 out_lan_1708795865.lammpstrj id type radius mass x y z
run 100000
Generated 0 of 0 mixed pair_coeff terms from geometric mixing rule
Per MPI rank memory allocation (min/avg/max) = 4.322 | 4.322 | 4.322 Mbytes
   Step          Temp          KinEng         PotEng         TotEng    
        29   49.656342      73.794842      8.2238743e-18  73.794842    
       500   0.99517474     1.4789402      0.22687294     1.7058132    
      1000   1.0858965      1.6137628      0.12540069     1.7391635    
      1500   0.88783931     1.3194279      0.23673501     1.5561629    
      2000   0.96454279     1.4334178      0.24250155     1.6759193    
      2500   1.1129089      1.6539063      0.18706328     1.8409696    
      3000   0.83562355     1.2418294      0.18139747     1.4232269    
      3500   0.99535765     1.4792121      0.1107585      1.5899706    
      4000   0.99767546     1.4826566      0.09881673     1.5814733    
      4500   1.0316634      1.5331664      0.12291711     1.6560835    
      5000   1.0411928      1.5473282      0.10045479     1.647783     
      5500   1.0094568      1.5001649      0.22380712     1.7239721    
      6000   1.0083045      1.4984526      0.12567505     1.6241276    
      6500   1.0527904      1.5645635      0.10330875     1.6678723    
      7000   1.1160111      1.6585166      0.15027217     1.8087887    
      7500   0.93737961     1.3930502      0.1386872      1.5317374    
      8000   1.007095       1.4966551      0.15886361     1.6555187    
      8500   1.0662056      1.5844999      0.11749624     1.7019962    
      9000   1.0154796      1.5091154      0.13258974     1.6417052    
      9500   0.93569789     1.390551       0.073340078    1.4638911    
     10000   1.0025699      1.4899302      0.11765345     1.6075837    
     10500   0.99045314     1.4719234      0.15511947     1.6270429    
     11000   0.99487483     1.4784945      0.14190184     1.6203964    
     11500   0.89125641     1.3245061      0.1083602      1.4328663    
     12000   1.0364643      1.5403011      0.056043548    1.5963446    
     12500   0.8426983      1.2523433      0.1743049      1.4266482    
     13000   0.99273407     1.4753131      0.12673633     1.6020495    
     13500   1.0913096      1.6218074      0.19052555     1.8123329    
     14000   1.0646794      1.5822318      0.088343686    1.6705755    
     14500   0.98289721     1.4606945      0.071693402    1.5323879    
     15000   1.0691809      1.5889216      0.12643794     1.7153595    
     15500   0.98091218     1.4577445      0.088020366    1.5457649    
     16000   0.99189356     1.474064       0.10151661     1.5755806    
     16500   1.0280786      1.527839       0.11293436     1.6407734    
     17000   1.012167       1.5041926      0.052699611    1.5568922    
     17500   0.90846566     1.3500809      0.068163359    1.4182443    
     18000   1.0654693      1.5834058      0.14961197     1.7330178    
     18500   1.0283235      1.528203       0.10087136     1.6290744    
     19000   0.98254183     1.4601663      0.087990571    1.5481569    
     19500   1.0580635      1.5723999      0.10777467     1.6801745    
     20000   1.0310157      1.5322039      0.11222775     1.6444317    
     20500   1.0546073      1.5672637      0.13057872     1.6978424    
     21000   0.95488181     1.4190605      0.13445446     1.5535149    
     21500   0.93053564     1.3828794      0.13665946     1.5195388    
     22000   0.93901793     1.395485       0.14783822     1.5433232    
     22500   0.921766       1.3698467      0.058306211    1.4281529    
     23000   1.1229367      1.6688087      0.12145592     1.7902646    
     23500   1.0669221      1.5855648      0.075240725    1.6608056    
     24000   1.0259017      1.524604       0.096585671    1.6211897    
     24500   0.98874958     1.4693917      0.11101066     1.5804024    
     25000   0.98960497     1.4706629      0.13681639     1.6074793    
     25500   0.9424731      1.4006197      0.10910329     1.509723     
     26000   0.97147637     1.4437218      0.18092141     1.6246432    
     26500   1.0362935      1.5400472      0.083489957    1.6235372    
     27000   0.96722582     1.437405       0.0992866      1.5366916    
     27500   0.97792306     1.4533023      0.15493147     1.6082338    
     28000   0.99622831     1.480506       0.10994723     1.5904532    
     28500   1.0125666      1.5047864      0.13349003     1.6382765    
     29000   1.0389877      1.5440512      0.15540296     1.6994542    
     29500   1.0782807      1.602445       0.14669708     1.7491421    
     30000   1.0731338      1.594796       0.090302443    1.6850984    
     30500   0.97124528     1.4433784      0.15857302     1.6019514    
     31000   1.0894298      1.6190137      0.11359783     1.7326116    
     31500   0.99367597     1.4767129      0.061773916    1.5384868    
     32000   1.0400157      1.5455789      0.13074764     1.6763265    
     32500   0.97638686     1.4510194      0.12783512     1.5788545    
     33000   1.0992246      1.6335698      0.087475144    1.721045     
     33500   1.0263104      1.5252112      0.1032275      1.6284387    
     34000   0.95501441     1.4192575      0.1419739      1.5612314    
     34500   1.0552         1.5681444      0.14895035     1.7170948    
     35000   1.0219832      1.5187806      0.070968066    1.5897486    
     35500   1.0415633      1.5478789      0.11083443     1.6587133    
     36000   0.96564921     1.435062       0.12079869     1.5558607    
     36500   0.97278027     1.4456596      0.13402486     1.5796844    
     37000   0.98909921     1.4699113      0.14695925     1.6168706    
     37500   0.92819447     1.3794001      0.11512381     1.4945239    
     38000   1.0243316      1.5222706      0.1160438      1.6383144    
     38500   1.0259373      1.5246569      0.18817628     1.7128332    
     39000   1.0428687      1.5498187      0.10928042     1.6590991    
     39500   1.0656375      1.5836557      0.13897042     1.7226261    
     40000   1.069337       1.5891536      0.089116063    1.6782696    
     40500   0.94391252     1.4027589      0.15194326     1.5547022    
     41000   1.0624709      1.5789498      0.11123724     1.6901871    
     41500   0.97932322     1.4553831      0.11707718     1.5724603    
     42000   1.0942661      1.626201       0.1057983      1.7319993    
     42500   0.98044485     1.45705        0.10418148     1.5612315    
     43000   0.9059774      1.3463831      0.11943662     1.4658197    
     43500   1.0157906      1.5095777      0.073876749    1.5834544    
     44000   1.0813892      1.6070646      0.13622235     1.7432869    
     44500   0.98455281     1.4631549      0.18284518     1.6460001    
     45000   1.0577816      1.571981       0.080888547    1.6528696    
     45500   0.97128711     1.4434406      0.14140954     1.5848501    
     46000   0.94171054     1.3994865      0.2134328      1.6129193    
     46500   1.0157987      1.5095897      0.12127792     1.6308677    
     47000   1.0783825      1.6025962      0.13061344     1.7332097    
     47500   0.97941052     1.4555129      0.13713019     1.592643     
     48000   1.0048221      1.4932773      0.11894079     1.6122181    
     48500   1.0375107      1.5418562      0.18365876     1.725515     
     49000   1.0413317      1.5475345      0.064425799    1.6119603    
     49500   0.93593636     1.3909054      0.039460469    1.4303659    
     50000   0.95330327     1.4167146      0.10891468     1.5256293    
     50500   0.95277385     1.4159278      0.055137136    1.4710649    
     51000   0.88897793     1.32112        0.12976086     1.4508808    
     51500   1.1229612      1.6688451      0.10259025     1.7714353    
     52000   0.95448491     1.4184706      0.1277058      1.5461764    
     52500   0.918504       1.364999       0.13719998     1.502199     
     53000   0.90449705     1.3441831      0.12758389     1.471767     
     53500   1.0011247      1.4877825      0.083913624    1.5716962    
     54000   1.0148227      1.5081393      0.098709922    1.6068492    
     54500   0.96066592     1.4276563      0.11360634     1.5412626    
     55000   0.92874511     1.3802184      0.090823582    1.471042     
     55500   0.93978797     1.3966293      0.05551017     1.4521395    
     56000   0.91175613     1.3549709      0.098053863    1.4530248    
     56500   0.89410275     1.328736       0.10947099     1.438207     
     57000   1.0031074      1.4907291      0.059503521    1.5502326    
     57500   1.0258825      1.5245754      0.078809345    1.6033847    
     58000   0.99694164     1.4815661      0.064301053    1.5458671    
     58500   1.0707798      1.5912978      0.093583049    1.6848809    
     59000   0.94562269     1.4053004      0.14526133     1.5505617    
     59500   0.96593386     1.435485       0.058467557    1.4939526    
     60000   0.91325117     1.3571927      0.093479403    1.4506721    
     60500   0.84222334     1.2516375      0.072409945    1.3240474    
     61000   0.99369909     1.4767473      0.10495354     1.5817008    
     61500   0.93287847     1.3863611      0.10251389     1.4888749    
     62000   1.04151        1.5477996      0.13850941     1.686309     
     62500   0.95071797     1.4128725      0.085732596    1.4986051    
     63000   1.1142209      1.655856       0.074217799    1.7300738    
     63500   1.0965482      1.6295925      0.099375833    1.7289683    
     64000   1.1133758      1.6546001      0.084296659    1.7388968    
     64500   0.94188689     1.3997486      0.10494799     1.5046966    
     65000   0.93698107     1.392458       0.093242262    1.4857002    
     65500   1.1073544      1.6456517      0.12321885     1.7688705    
     66000   1.0464693      1.5551696      0.078369988    1.6335396    
     66500   1.0576847      1.5718369      0.076496084    1.648333     
     67000   1.0046405      1.4930073      0.11638068     1.609388     
     67500   1.1012272      1.636546       0.06054106     1.6970871    
     68000   0.96858062     1.4394184      0.052907257    1.4923257    
     68500   0.98099841     1.4578726      0.043914014    1.5017867    
     69000   0.90893627     1.3507803      0.090881933    1.4416622    
     69500   1.0151645      1.5086472      0.17945306     1.6881003    
     70000   1.2512106      1.8594379      0.064457129    1.923895     
     70500   0.94721811     1.4076714      0.078163663    1.485835     
     71000   0.99762332     1.4825791      0.090532557    1.5731117    
     71500   1.036532       1.5404017      0.13191091     1.6723126    
     72000   1.0206806      1.5168448      0.078428332    1.5952732    
     72500   1.0017143      1.4886588      0.1120269      1.6006857    
     73000   0.98258345     1.4602282      0.10209064     1.5623188    
     73500   0.97077034     1.4426726      0.10293432     1.5456069    
     74000   0.99027628     1.4716606      0.06542076     1.5370813    
     74500   0.90905018     1.3509496      0.08361753     1.4345671    
     75000   0.91027671     1.3527723      0.041867778    1.3946401    
     75500   0.98363001     1.4617835      0.055826385    1.5176099    
     76000   0.99875908     1.484267       0.059342776    1.5436097    
     76500   1.1404372      1.6948164      0.14230386     1.8371203    
     77000   1.155924       1.7178315      0.11197017     1.8298017    
     77500   0.93757348     1.3933384      0.060726767    1.4540651    
     78000   1.001097       1.4877414      0.095196407    1.5829378    
     78500   1.190337       1.768973       0.086199941    1.8551729    
     79000   0.84814515     1.2604379      0.081180721    1.3416187    
     79500   1.2101546      1.7984242      0.14264484     1.941069     
     80000   0.92790012     1.3789627      0.058297853    1.4372605    
     80500   0.90407507     1.343556       0.1377671      1.4813231    
     81000   1.080443       1.6056583      0.087321402    1.6929797    
     81500   1.045106       1.5531436      0.087426751    1.6405704    
     82000   1.021946       1.5187254      0.14280301     1.6615284    
     82500   0.9517564      1.4144158      0.065323654    1.4797394    
     83000   0.93090568     1.3834293      0.10324206     1.4866713    
     83500   1.0214607      1.5180041      0.094633368    1.6126375    
     84000   1.0013706      1.488148       0.087257802    1.5754058    
     84500   1.0593634      1.5743317      0.14207084     1.7164026    
     85000   1.0077298      1.4975985      0.07118468     1.5687832    
     85500   0.96006591     1.4267646      0.096305304    1.5230699    
     86000   1.0267821      1.5259123      0.15893539     1.6848477    
     86500   1.0912672      1.6217443      0.12919898     1.7509433    
     87000   0.98046347     1.4570777      0.13918243     1.5962601    
     87500   1.1934777      1.7736405      0.11826714     1.8919076    
     88000   1.0510538      1.5619827      0.10609405     1.6680767    
     88500   1.0215602      1.5181519      0.13941888     1.6575708    
     89000   0.86680081     1.2881623      0.11049596     1.3986583    
     89500   1.0140134      1.5069366      0.084245967    1.5911825    
     90000   0.94828207     1.4092525      0.11086854     1.5201211    
     90500   0.90914581     1.3510917      0.11852587     1.4696176    
     91000   0.98553455     1.4646138      0.12350466     1.5881185    
     91500   0.97468048     1.4484835      0.11111175     1.5595952    
     92000   0.98646324     1.465994       0.16384243     1.6298364    
     92500   1.0620788      1.5783671      0.067810097    1.6461772    
     93000   0.92444027     1.373821       0.11742777     1.4912487    
     93500   1.0390836      1.5441937      0.21792148     1.7621152    
     94000   1.0174318      1.5120167      0.10441468     1.6164314    
     94500   1.0562044      1.569637       0.14381555     1.7134526    
     95000   0.96596476     1.435531       0.11308452     1.5486155    
     95500   0.91756556     1.3636044      0.1372855      1.5008899    
     96000   0.96953922     1.440843       0.15214123     1.5929842    
     96500   0.81110382     1.2053904      0.10332041     1.3087108    
     97000   1.0285313      1.5285118      0.12339615     1.6519079    
     97500   1.0268111      1.5259554      0.12928333     1.6552387    
     98000   0.87391331     1.2987323      0.055903859    1.3546361    
     98500   0.97535018     1.4494787      0.12276859     1.5722473    
     99000   1.1693924      1.7378471      0.14401709     1.8818642    
     99500   1.0812176      1.6068095      0.15738606     1.7641956    
    100000   0.83449292     1.2401492      0.078437328    1.3185865    
    100029   0.90267344     1.341473       0.065731922    1.407205     
Loop time of 0.861524 on 1 procs for 100000 steps with 108 atoms

Performance: 10028743.982 tau/day, 116073.426 timesteps/s, 12.536 Matom-step/s
124.4% CPU use with 1 MPI tasks x 1 OpenMP threads

MPI task timing breakdown:
Section |  min time  |  avg time  |  max time  |%varavg| %total
---------------------------------------------------------------
Pair    | 0.086727   | 0.086727   | 0.086727   |   0.0 | 10.07
Neigh   | 0.011376   | 0.011376   | 0.011376   |   0.0 |  1.32
Comm    | 0.13808    | 0.13808    | 0.13808    |   0.0 | 16.03
Output  | 0.0054835  | 0.0054835  | 0.0054835  |   0.0 |  0.64
Modify  | 0.59073    | 0.59073    | 0.59073    |   0.0 | 68.57
Other   |            | 0.02913    |            |       |  3.38

Nlocal:            108 ave         108 max         108 min
Histogram: 1 0 0 0 0 0 0 0 0 0
Nghost:            214 ave         214 max         214 min
Histogram: 1 0 0 0 0 0 0 0 0 0
Neighs:            265 ave         265 max         265 min
Histogram: 1 0 0 0 0 0 0 0 0 0

Total # of neighbors = 265
Ave neighs/atom = 2.4537037
Neighbor list builds = 294
Dangerous builds = 0

write_data data.${outfile} nocoeff nofix
write_data data.1708795865 nocoeff nofix
System init for write_data ...
Generated 0 of 0 mixed pair_coeff terms from geometric mixing rule
Total wall time: 0:00:00
