LAMMPS (3 Mar 2020)
###variable outfile string L15.17
###variable L equal 15.17

units lj

newton off
atom_style      sphere
boundary        p p p
comm_modify     mode single vel yes


region      boxid block 0.0     $L      0.0       $L      0.0       $L
region      boxid block 0.0     6.56      0.0       $L      0.0       $L
region      boxid block 0.0     6.56      0.0       6.56      0.0       $L
region      boxid block 0.0     6.56      0.0       6.56      0.0       6.56
#create_box  1 boxid
include create_box.in
create_box 1 boxid
Created orthogonal box = (0 0 0) to (6.56 6.56 6.56)
  1 by 1 by 1 MPI processor grid


######
include create_np.in
create_atoms 1 random 54 6590 boxid
Created 54 atoms
  create_atoms CPU = 0.00105891 secs
velocity    all create 1.0 87287 dist gaussian

#####
include particles.in
set type 1 diameter 1.0
  54 settings made for diameter
set type 1 mass 26.0
  54 settings made for mass

###
fix 1 all langevin 1.0 1.0 0.1 12345
fix 2 all nve/sphere

###
pair_style lj/cut 1.
include pots_lj_lan.in
pair_coeff 1 1 10.0 1.0 1.122462048309373
pair_modify shift yes



minimize          1.0e-4 1.0e-6 1000 1000
WARNING: Using 'neigh_modify every 1 delay 0 check yes' setting during minimization (src/min.cpp:190)
Neighbor list info ...
  update every 1 steps, delay 0 steps, check yes
  max neighbors/atom: 2000, page size: 100000
  master list distance cutoff = 1.42246
  ghost atom cutoff = 1.42246
  binsize = 0.711231, bins = 10 10 10
  1 neighbor lists, perpetual/occasional/extra = 1 0 0
  (1) pair lj/cut, perpetual
      attributes: half, newton off
      pair build: half/bin/newtoff
      stencil: half/bin/3d/newtoff
      bin: standard
Per MPI rank memory allocation (min/avg/max) = 5.445 | 5.445 | 5.445 Mbytes
Step Temp E_pair E_mol TotEng Press 
       0    49.656342    5158297.4            0    5158370.5    3947737.6 
      19    49.656342 3.3642817e-11            0    73.105171    9.3226454 
Loop time of 0.0011507 on 1 procs for 19 steps with 54 atoms

100.2% CPU use with 1 MPI tasks x no OpenMP threads

Minimization stats:
  Stopping criterion = quadratic factors are zero
  Energy initial, next-to-last, final = 
         5158297.38503  3.36428169274e-11  3.36428169274e-11
  Force two-norm initial, final = 1.72923e+10 0.00203786
  Force max component initial, final = 9.9626e+09 0.00135437
  Final line search alpha, max atom move = 1 0.00135437
  Iterations, force evaluations = 19 53

MPI task timing breakdown:
Section |  min time  |  avg time  |  max time  |%varavg| %total
---------------------------------------------------------------
Pair    | 0.000211   | 0.000211   | 0.000211   |   0.0 | 18.34
Neigh   | 0.00047481 | 0.00047481 | 0.00047481 |   0.0 | 41.26
Comm    | 0.00019762 | 0.00019762 | 0.00019762 |   0.0 | 17.17
Output  | 0          | 0          | 0          |   0.0 |  0.00
Modify  | 0          | 0          | 0          |   0.0 |  0.00
Other   |            | 0.0002673  |            |       | 23.23

Nlocal:    54 ave 54 max 54 min
Histogram: 1 0 0 0 0 0 0 0 0 0
Nghost:    99 ave 99 max 99 min
Histogram: 1 0 0 0 0 0 0 0 0 0
Neighs:    83 ave 83 max 83 min
Histogram: 1 0 0 0 0 0 0 0 0 0

Total # of neighbors = 83
Ave neighs/atom = 1.53704
Neighbor list builds = 5
Dangerous builds = 0

thermo_style custom step temp ke pe etotal
thermo 500
timestep 0.001
#dump    id all custom 5000 out_lan_${outfile}.lammpstrj id type radius mass xu yu zu vx vy vz fx fy fz
dump    id all custom 5000 out_lan_${outfile}.lammpstrj id type radius mass x y z
dump    id all custom 5000 out_lan_1676475466.lammpstrj id type radius mass x y z
run 100000
Per MPI rank memory allocation (min/avg/max) = 4.32 | 4.32 | 4.32 Mbytes
Step Temp KinEng PotEng TotEng 
      19    49.656342    73.105171 3.3642817e-11    73.105171 
     500   0.91413036     1.345803  0.071252342    1.4170554 
    1000    1.2147744    1.7884179  0.024106715    1.8125246 
    1500    1.1560626    1.7019811 0.0027182921    1.7046994 
    2000    1.1835057    1.7423833  0.040763665     1.783147 
    2500    1.1524134    1.6966086  0.057267432     1.753876 
    3000   0.88292327    1.2998593  0.054577284    1.3544365 
    3500     1.082344    1.5934509  0.020266741    1.6137176 
    4000    1.1711342    1.7241698  0.013537792    1.7377076 
    4500    1.1089486    1.6326187  0.027893144    1.6605119 
    5000     1.069196    1.5740941   0.03592824    1.6100223 
    5500   0.99292147    1.4618011  0.021144014    1.4829451 
    6000     1.009517    1.4862333  0.062493436    1.5487267 
    6500   0.99862412    1.4701966  0.025762066    1.4959587 
    7000    1.1168938    1.6443158  0.025801001    1.6701168 
    7500   0.98084667    1.4440243   0.07087433    1.5148986 
    8000    1.1103907    1.6347419  0.082557805    1.7172997 
    8500     0.985375     1.450691  0.034200647    1.4848916 
    9000    1.0284627    1.5141257  0.066871738    1.5809974 
    9500    1.0148387    1.4940681  0.032810229    1.5268783 
   10000    1.1514036     1.695122  0.039495752    1.7346177 
   10500    1.0659634     1.569335  0.026633639    1.5959686 
   11000   0.85942214    1.2652604  0.031162227    1.2964226 
   11500   0.87493565    1.2880997  0.026355301     1.314455 
   12000    1.0971134    1.6151947  0.032378805    1.6475735 
   12500    1.1216154    1.6512671   0.11176761    1.7630347 
   13000   0.94921126    1.3974499  0.035166566    1.4326165 
   13500   0.90650457    1.3345762   0.02558867    1.3601648 
   14000    1.0142711    1.4932325   0.02362188    1.5168544 
   14500    1.0331625    1.5210448  0.057819202     1.578864 
   15000    1.1017849    1.6220723  0.078606106    1.7006784 
   15500   0.94941506    1.3977499  0.060976125    1.4587261 
   16000    1.0513291    1.5477901  0.043378568    1.5911686 
   16500   0.77386005     1.139294  0.081639301    1.2209333 
   17000    1.1524676    1.6966884  0.072015795    1.7687042 
   17500   0.99217841    1.4607071   0.02948831    1.4901954 
   18000   0.93016962    1.3694164  0.060812166    1.4302286 
   18500    0.9672527    1.4240109  0.040924342    1.4649353 
   19000    1.0891157    1.6034204  0.042797272    1.6462177 
   19500     1.044315    1.5374638  0.042971892    1.5804357 
   20000    0.9242105    1.3606432 0.00077253782    1.3614158 
   20500   0.91029562    1.3401574   0.02696199    1.3671194 
   21000    1.0751554    1.5828676  0.014126638    1.5969943 
   21500    1.0696881    1.5748186  0.025876885    1.6006955 
   22000    1.1173364    1.6449674  0.018370643    1.6633381 
   22500    1.0535893    1.5511175 0.0073395066    1.5584571 
   23000   0.97581638    1.4366186  0.030658721    1.4672773 
   23500   0.98666432    1.4525891  0.092023958    1.5446131 
   24000    0.9440086    1.3897904  0.024646759    1.4144372 
   24500     1.061555    1.5628448  0.092376708    1.6552215 
   25000   0.93617198    1.3782532  0.032884275    1.4111375 
   25500   0.80761593    1.1889901 0.0053454575    1.1943356 
   26000   0.97573809    1.4365033  0.018662188    1.4551655 
   26500    1.0988851    1.6178031   0.03791711    1.6557202 
   27000    1.0232515    1.5064536  0.027421207    1.5338748 
   27500   0.97901095    1.4413217   0.11155477    1.5528764 
   28000    1.1818097    1.7398865   0.01117755     1.751064 
   28500    1.1357065    1.6720124  0.028053204    1.7000656 
   29000    1.0605736       1.5614    0.0410407    1.6024407 
   29500   0.95589593    1.4072912  0.031238576    1.4385298 
   30000    1.1147945    1.6412252  0.042478701    1.6837039 
   30500    1.1876415    1.7484722  0.085777682    1.8342499 
   31000    1.0544746    1.5524209  0.060667372    1.6130882 
   31500     0.933219    1.3739058  0.069091602    1.4429974 
   32000   0.96116704    1.4150515  0.029453915    1.4445054 
   32500   0.91868551    1.3525092  0.014562266    1.3670715 
   33000    1.1919828    1.7548635  0.060419145    1.8152827 
   33500    1.0085613    1.4848263  0.098910535    1.5837368 
   34000   0.91016961    1.3399719  0.002330825    1.3423028 
   34500    1.0712949    1.5771842  0.024848846    1.6020331 
   35000   0.93328688    1.3740057  0.010392019    1.3843977 
   35500   0.96847686    1.4258132 0.0080803821    1.4338935 
   36000     1.120491    1.6496118  0.006270998    1.6558828 
   36500    1.0597047    1.5601208  0.044386076    1.6045069 
   37000    1.1320927    1.6666921  0.011917234    1.6786093 
   37500   0.87752893    1.2919176  0.012160669    1.3040783 
   38000   0.99760234    1.4686923  0.097831798    1.5665241 
   38500    1.1431095    1.6829113  0.012239849    1.6951511 
   39000    1.2934393    1.9042301  0.077385173    1.9816153 
   39500    1.0296322    1.5158474 0.0075131063    1.5233605 
   40000    1.1403008    1.6787762 0.0089494409    1.6877256 
   40500    1.0811257    1.5916572  0.025894035    1.6175513 
   41000    1.0229052    1.5059438  0.084281446    1.5902252 
   41500   0.97267814    1.4319984  0.048156141    1.4801545 
   42000   0.84780108    1.2481516  0.046078855    1.2942304 
   42500    1.0739016    1.5810219 0.0035258357    1.5845477 
   43000   0.90080959    1.3261919   0.09077205     1.416964 
   43500   0.84020459    1.2369679  0.047197182     1.284165 
   44000    1.0773966    1.5861672 0.0062908063     1.592458 
   44500   0.86208376    1.2691789  0.044983078    1.3141619 
   45000    1.0224417    1.5052614  0.014968972    1.5202304 
   45500    1.1241562    1.6550078 0.0098760986    1.6648839 
   46000   0.89045535    1.3109482  0.049594422    1.3605426 
   46500    1.1410183    1.6798325  0.018500532     1.698333 
   47000   0.98347326    1.4478912  0.018577541    1.4664687 
   47500   0.96387635    1.4190402  0.016736058    1.4357762 
   48000     1.105029    1.6268483  0.099622167    1.7264705 
   48500   0.99968132    1.4717531  0.053483445    1.5252365 
   49000    1.2048357    1.7737859  0.032073479    1.8058594 
   49500   0.90454129    1.3316858 0.0040760089    1.3357618 
   50000    1.0107993    1.4881212  0.012341188    1.5004624 
   50500   0.94879043    1.3968304  0.015379479    1.4122098 
   51000    1.1075317    1.6305328  0.052428118    1.6829609 
   51500    1.0394501    1.5303016  0.027919758    1.5582213 
   52000    1.1236766    1.6543017 0.0048031059    1.6591048 
   52500   0.98918963    1.4563069  0.042285888    1.4985928 
   53000   0.95050443    1.3993537    0.1171782    1.5165319 
   53500   0.86101368    1.2676035  0.033538875    1.3011424 
   54000   0.96716897    1.4238877  0.017001657    1.4408893 
   54500    1.2758947    1.8784005  0.030794382    1.9091949 
   55000   0.99136721    1.4595128  0.066242297    1.5257551 
   55500   0.97456593    1.4347776  0.030795561    1.4655732 
   56000   0.89242301     1.313845 0.0086138122    1.3224588 
   56500   0.79326927    1.1678687            0    1.1678687 
   57000   0.99275751    1.4615597            0    1.4615597 
   57500    1.1564092    1.7024914 0.00014011329    1.7026315 
   58000   0.95069407    1.3996329   0.02602031    1.4256533 
   58500    1.1432008    1.6830456  0.060596125    1.7436418 
   59000    1.1495525    1.6923968  0.029712958    1.7221098 
   59500    1.1619929    1.7107118 0.0099606375    1.7206725 
   60000    1.0096505    1.4864299  0.050390888    1.5368208 
   60500   0.87938112    1.2946444  0.032918438    1.3275629 
   61000   0.98715335    1.4533091  0.059919072    1.5132282 
   61500   0.93789066    1.3807835    0.0612903    1.4420738 
   62000   0.97420086    1.4342402  0.037084631    1.4713248 
   62500    1.0712109    1.5770605  0.093504331    1.6705648 
   63000    1.0422752    1.5344607 0.0015659495    1.5360267 
   63500    1.0335385    1.5215983 0.0056612625    1.5272595 
   64000     1.081965     1.592893  0.024206417    1.6170994 
   64500   0.90950732    1.3389969  0.018361753    1.3573586 
   65000    1.0180057    1.4987306  0.062662736    1.5613934 
   65500   0.97403008    1.4339887  0.029060564    1.4630493 
   66000    1.0979515    1.6164286  0.032355372     1.648784 
   66500   0.98864072    1.4554988 0.0099479731    1.4654468 
   67000    1.1293205    1.6626108   0.04352445    1.7061352 
   67500    1.0109828    1.4883913  0.035371486    1.5237628 
   68000    1.1859089    1.7459214  0.012346092    1.7582675 
   68500   0.91693644    1.3499342  0.031740735    1.3816749 
   69000   0.88477487    1.3025852  0.025966594    1.3285518 
   69500   0.89248674    1.3139388   0.01160245    1.3255413 
   70000    1.1680133    1.7195752  0.052314299    1.7718895 
   70500    1.0654077    1.5685169  0.049971087     1.618488 
   71000    1.0946633    1.6115877  0.025758412    1.6373461 
   71500    1.0869834    1.6002811  0.028735612    1.6290167 
   72000   0.81223656    1.1957927  0.031559588    1.2273523 
   72500    1.1269352    1.6590991  0.018073527    1.6771726 
   73000    1.0322071    1.5196382  0.040579565    1.5602178 
   73500    1.1572386    1.7037123  0.041248403    1.7449607 
   74000    1.1410958    1.6799466 0.0093214392     1.689268 
   74500    1.1736403    1.7278593  0.089931484    1.8177908 
   75000    1.0318953    1.5191792  0.013775098    1.5329543 
   75500    1.0825857    1.5938068  0.018058784    1.6118655 
   76000    1.2122227    1.7846612   0.04035708    1.8250183 
   76500   0.87087179    1.2821168  0.018172905    1.3002897 
   77000   0.99673708    1.4674185 0.0039201313    1.4713386 
   77500      1.10752    1.6305156  0.014921513    1.6454371 
   78000    1.0770462    1.5856513  0.010552347    1.5962036 
   78500   0.98109986     1.444397 0.00067453823    1.4450716 
   79000    1.0144687    1.4935234            0    1.4935234 
   79500   0.88726552     1.306252  0.035496757    1.3417488 
   80000    1.2459995    1.8343881  0.022332466    1.8567206 
   80500    0.9742937    1.4343768  0.002118493    1.4364953 
   81000    0.8975576    1.3214042  0.039861522    1.3612658 
   81500    1.1427312    1.6823543  0.079393627    1.7617479 
   82000   0.79239475    1.1665812  0.039978936    1.2065601 
   82500    1.1483538    1.6906319   0.01625758    1.7068895 
   83000    1.0662513    1.5697589  0.023198266    1.5929571 
   83500    1.0784759    1.5877562  0.048513779      1.63627 
   84000   0.96089939    1.4146574  0.035094782    1.4497522 
   84500   0.92212954    1.3575796  0.078037248    1.4356168 
   85000   0.89045237    1.3109438  0.040201695    1.3511455 
   85500   0.92438199    1.3608957  0.058532948    1.4194286 
   86000    1.1143916    1.6406321  0.037770776    1.6784029 
   86500   0.90538887    1.3329336   0.01613879    1.3490724 
   87000    1.0064808    1.4817634  0.016062188    1.4978255 
   87500    1.1636074    1.7130887 0.0038766604    1.7169654 
   88000     1.094983    1.6120583   0.02285642    1.6349148 
   88500    1.2652065    1.8626651  0.054599166    1.9172643 
   89000   0.97441311    1.4345526  0.052938294    1.4874909 
   89500   0.90057511    1.3258467  0.030795741    1.3566424 
   90000   0.80203087    1.1807677  0.040558129    1.2213258 
   90500   0.98025614    1.4431549  0.038287848    1.4814427 
   91000    1.0990445    1.6180378  0.046247381    1.6642851 
   91500   0.99464097    1.4643325   0.14121207    1.6055446 
   92000    1.0169007    1.4971038   0.04129931    1.5384031 
   92500   0.96529754    1.4211325  0.026460458    1.4475929 
   93000   0.81328701    1.1973392  0.041260532    1.2385997 
   93500    1.0773485    1.5860965    0.0266824    1.6127789 
   94000    1.0769098    1.5854505  0.042886314    1.6283368 
   94500    1.0328558    1.5205932  0.021297062    1.5418903 
   95000    0.9301273    1.3693541   0.09395901    1.4633131 
   95500    1.1439137    1.6840951 0.0040463079    1.6881414 
   96000    1.0905476    1.6055284  0.073146781    1.6786752 
   96500   0.86973575    1.2804443   0.01530691    1.2957512 
   97000   0.92347265     1.359557  0.014886521    1.3744435 
   97500    1.1322099    1.6668646 0.0078876282    1.6747522 
   98000   0.98826151    1.4549406  0.060351365    1.5152919 
   98500   0.92863287    1.3671539            0    1.3671539 
   99000   0.97432785    1.4344271            0    1.4344271 
   99500   0.98605166    1.4516872 0.0073546563    1.4590418 
  100000    1.0963042    1.6140034  0.012469697    1.6264731 
  100019     1.061555    1.5628449 0.0093392309    1.5721841 
Loop time of 0.503471 on 1 procs for 100000 steps with 54 atoms

Performance: 17160854.351 tau/day, 198620.999 timesteps/s
99.5% CPU use with 1 MPI tasks x no OpenMP threads

MPI task timing breakdown:
Section |  min time  |  avg time  |  max time  |%varavg| %total
---------------------------------------------------------------
Pair    | 0.04691    | 0.04691    | 0.04691    |   0.0 |  9.32
Neigh   | 0.0080468  | 0.0080468  | 0.0080468  |   0.0 |  1.60
Comm    | 0.081109   | 0.081109   | 0.081109   |   0.0 | 16.11
Output  | 0.0030035  | 0.0030035  | 0.0030035  |   0.0 |  0.60
Modify  | 0.32967    | 0.32967    | 0.32967    |   0.0 | 65.48
Other   |            | 0.03473    |            |       |  6.90

Nlocal:    54 ave 54 max 54 min
Histogram: 1 0 0 0 0 0 0 0 0 0
Nghost:    106 ave 106 max 106 min
Histogram: 1 0 0 0 0 0 0 0 0 0
Neighs:    50 ave 50 max 50 min
Histogram: 1 0 0 0 0 0 0 0 0 0

Total # of neighbors = 50
Ave neighs/atom = 0.925926
Neighbor list builds = 270
Dangerous builds = 0

write_data data.${outfile} nocoeff nofix
write_data data.1676475466 nocoeff nofix
Total wall time: 0:00:00
