LAMMPS (21 Nov 2023)
OMP_NUM_THREADS environment is not set. Defaulting to 1 thread. (src/comm.cpp:98)
  using 1 OpenMP thread(s) per MPI task
###variable outfile string L15.17
###variable L equal 15.17

units lj

newton off
atom_style      sphere
boundary        p p p
comm_modify     mode single vel yes


region      boxid block 0.0     $L      0.0       $L      0.0       $L
region      boxid block 0.0     5.733683388133033      0.0       $L      0.0       $L
region      boxid block 0.0     5.733683388133033      0.0       5.733683388133033      0.0       $L
region      boxid block 0.0     5.733683388133033      0.0       5.733683388133033      0.0       5.733683388133033
#create_box  1 boxid
include create_box.in
create_box 1 boxid
Created orthogonal box = (0 0 0) to (5.7336834 5.7336834 5.7336834)
  1 by 1 by 1 MPI processor grid


######
include create_np.in
create_atoms 1 random 72 6681 boxid
Created 72 atoms
  using lattice units in orthogonal box = (0 0 0) to (5.7336834 5.7336834 5.7336834)
  create_atoms CPU = 0.001 seconds
velocity    all create 1.0 87287 dist gaussian

#####
include particles.in
set type 1 diameter 1.0
Setting atom values ...
  72 settings made for diameter
set type 1 mass 26.0
Setting atom values ...
  72 settings made for mass

###
fix 1 all langevin 1.0 1.0 0.1 12345
fix 2 all nve/sphere

###
pair_style lj/cut 1.
include pots_lj_lan.in
pair_coeff 1 1 10.0 1.0 1.122462048309373
pair_modify shift yes



minimize          1.0e-4 1.0e-6 1000 1000
Generated 0 of 0 mixed pair_coeff terms from geometric mixing rule
Neighbor list info ...
  update: every = 1 steps, delay = 0 steps, check = yes
  max neighbors/atom: 2000, page size: 100000
  master list distance cutoff = 1.422462
  ghost atom cutoff = 1.422462
  binsize = 0.71123102, bins = 9 9 9
  1 neighbor lists, perpetual/occasional/extra = 1 0 0
  (1) pair lj/cut, perpetual
      attributes: half, newton off
      pair build: half/bin/newtoff
      stencil: full/bin/3d
      bin: standard
Per MPI rank memory allocation (min/avg/max) = 5.444 | 5.444 | 5.444 Mbytes
   Step          Temp          E_pair         E_mol          TotEng         Press     
         0   49.656342      60156.611      0              60230.061      92395.477    
        21   49.656342      2.1419027e-06  0              73.450008      18.704825    
Loop time of 0.000609988 on 1 procs for 21 steps with 72 atoms

456.6% CPU use with 1 MPI tasks x 1 OpenMP threads

Minimization stats:
  Stopping criterion = quadratic factors are zero
  Energy initial, next-to-last, final = 
      60156.6110812304 2.14190267848006e-06 2.14190267848006e-06
  Force two-norm initial, final = 98340497 0.59639542
  Force max component initial, final = 55731547 0.37171041
  Final line search alpha, max atom move = 0.0083020109 0.0030859439
  Iterations, force evaluations = 21 61

MPI task timing breakdown:
Section |  min time  |  avg time  |  max time  |%varavg| %total
---------------------------------------------------------------
Pair    | 0.00012923 | 0.00012923 | 0.00012923 |   0.0 | 21.19
Neigh   | 0.0002253  | 0.0002253  | 0.0002253  |   0.0 | 36.93
Comm    | 0.00015277 | 0.00015277 | 0.00015277 |   0.0 | 25.04
Output  | 0          | 0          | 0          |   0.0 |  0.00
Modify  | 0          | 0          | 0          |   0.0 |  0.00
Other   |            | 0.0001027  |            |       | 16.84

Nlocal:             72 ave          72 max          72 min
Histogram: 1 0 0 0 0 0 0 0 0 0
Nghost:            169 ave         169 max         169 min
Histogram: 1 0 0 0 0 0 0 0 0 0
Neighs:            210 ave         210 max         210 min
Histogram: 1 0 0 0 0 0 0 0 0 0

Total # of neighbors = 210
Ave neighs/atom = 2.9166667
Neighbor list builds = 6
Dangerous builds = 0

thermo_style custom step temp ke pe etotal
thermo 500
timestep 0.001
#dump    id all custom 5000 out_lan_${outfile}.lammpstrj id type radius mass xu yu zu vx vy vz fx fy fz
dump    id all custom 5000 out_lan_${outfile}.lammpstrj id type radius mass x y z
dump    id all custom 5000 out_lan_1709053749.lammpstrj id type radius mass x y z
run 100000
Generated 0 of 0 mixed pair_coeff terms from geometric mixing rule
Per MPI rank memory allocation (min/avg/max) = 4.319 | 4.319 | 4.319 Mbytes
   Step          Temp          KinEng         PotEng         TotEng    
        21   49.656342      73.450006      2.1419027e-06  73.450008    
       500   1.1141442      1.6480049      0.27071665     1.9187216    
      1000   1.0909012      1.6136247      0.21345916     1.8270838    
      1500   1.0133804      1.4989585      0.19412857     1.693087     
      2000   0.98664779     1.4594165      0.26761788     1.7270344    
      2500   1.1777785      1.7421308      0.23656811     1.9786989    
      3000   1.0591485      1.5666571      0.14630287     1.71296      
      3500   0.92718546     1.3714618      0.1660446      1.5375064    
      4000   0.934124       1.3817251      0.22594712     1.6076722    
      4500   1.1281548      1.668729       0.11995931     1.7886883    
      5000   1.1053657      1.6350201      0.15704398     1.792064     
      5500   0.97725157     1.445518       0.16195999     1.6074779    
      6000   1.2523866      1.8524885      0.2322567      2.0847452    
      6500   0.93488935     1.3828572      0.31589372     1.6987509    
      7000   0.91384231     1.3517251      0.11246611     1.4641912    
      7500   1.0607328      1.5690005      0.12823497     1.6972355    
      8000   0.81652619     1.2077783      0.12859713     1.3363755    
      8500   1.0117607      1.4965628      0.21479677     1.7113595    
      9000   1.1640909      1.7218845      0.16686258     1.8887471    
      9500   1.0063429      1.4885489      0.1537118      1.6422607    
     10000   1.0652186      1.5756358      0.07660786     1.6522437    
     10500   0.97593015     1.4435634      0.132271       1.5758343    
     11000   1.0936478      1.6176873      0.10799537     1.7256827    
     11500   1.0753638      1.5906423      0.061738385    1.6523807    
     12000   0.86934425     1.285905       0.10868002     1.3945851    
     12500   0.85412327     1.2633907      0.14701585     1.4104065    
     13000   0.86741823     1.2830561      0.15833744     1.4413936    
     13500   1.1950218      1.7676364      0.13630915     1.9039455    
     14000   1.1181585      1.6539428      0.13614277     1.7900856    
     14500   0.98275936     1.4536649      0.13440864     1.5880735    
     15000   0.92404711     1.3668197      0.060763288    1.427583     
     15500   1.0597087      1.5674859      0.11032059     1.6778064    
     16000   1.0304136      1.5241535      0.1610411      1.6851946    
     16500   0.89890308     1.3296275      0.073185382    1.4028129    
     17000   0.91677353     1.3560609      0.094006924    1.4500678    
     17500   0.90935025     1.3450806      0.056778985    1.4018596    
     18000   1.1009791      1.6285317      0.086726677    1.7152583    
     18500   0.97962848     1.4490338      0.12199843     1.5710322    
     19000   1.1504489      1.7017056      0.13510278     1.8368084    
     19500   1.0901819      1.6125607      0.0899638      1.7025245    
     20000   0.96727432     1.4307599      0.10929257     1.5400525    
     20500   0.89501977     1.3238834      0.072573738    1.3964571    
     21000   1.1651413      1.7234382      0.20001908     1.9234573    
     21500   0.97414685     1.4409255      0.099465802    1.5403913    
     22000   0.97891783     1.4479826      0.11717519     1.5651578    
     22500   0.94755137     1.4015864      0.11245399     1.5140404    
     23000   0.98063643     1.4505247      0.18323735     1.6337621    
     23500   0.86060148     1.272973       0.066940147    1.3399132    
     24000   1.0107784      1.4951097      0.12782334     1.622933     
     24500   1.0402768      1.5387427      0.13757252     1.6763153    
     25000   1.0247102      1.5157172      0.068277029    1.5839942    
     25500   1.0661198      1.5769689      0.15762862     1.7345975    
     26000   1.0531465      1.5577792      0.091631852    1.649411     
     26500   1.1211699      1.6583971      0.12434815     1.7827452    
     27000   0.89732215     1.327289       0.10030265     1.4275917    
     27500   1.0089775      1.4924459      0.15768981     1.6501357    
     28000   1.2024184      1.7785772      0.026207594    1.8047848    
     28500   0.93208139     1.3787037      0.060813918    1.4395176    
     29000   1.0804819      1.5982128      0.10717445     1.7053873    
     29500   0.97475462     1.4418245      0.088167279    1.5299918    
     30000   1.1493264      1.7000453      0.18089861     1.8809439    
     30500   0.83050968     1.2284622      0.062772134    1.2912344    
     31000   1.1302773      1.6718686      0.13942436     1.8112929    
     31500   0.96617406     1.4291325      0.034646364    1.4637788    
     32000   1.1353009      1.6792992      0.076576026    1.7558752    
     32500   0.95231077     1.4086263      0.14425487     1.5528812    
     33000   1.1147163      1.6488511      0.20783866     1.8566898    
     33500   0.9570419      1.4156245      0.1302742      1.5458987    
     34000   1.0268122      1.5188264      0.19666054     1.715487     
     34500   0.97970282     1.4491438      0.10828681     1.5574306    
     35000   1.0647444      1.5749344      0.1691487      1.7440831    
     35500   0.88245078     1.3052918      0.10563622     1.410928     
     36000   1.1241483      1.6628027      0.19708434     1.859887     
     36500   0.98803327     1.4614659      0.085338256    1.5468041    
     37000   1.0094293      1.4931142      0.14480595     1.6379202    
     37500   0.93604328     1.384564       0.095969906    1.4805339    
     38000   1.098941       1.6255169      0.12330158     1.7488185    
     38500   0.98091089     1.4509307      0.15658143     1.6075121    
     39000   0.97526712     1.4425826      0.086832639    1.5294153    
     39500   0.90564118     1.3395942      0.20000656     1.5396008    
     40000   0.93888068     1.388761       0.1108653      1.4996263    
     40500   1.0601138      1.568085       0.19912711     1.7672121    
     41000   0.94618966     1.3995722      0.097258475    1.4968307    
     41500   1.0261248      1.5178097      0.071820164    1.5896298    
     42000   1.0551277      1.5607097      0.0611684      1.6218781    
     42500   1.1310454      1.6730046      0.07435247     1.7473571    
     43000   1.0311001      1.5251688      0.1306159      1.6557847    
     43500   1.0376078      1.5347948      0.10677291     1.6415677    
     44000   1.1115528      1.6441718      0.15785246     1.8020243    
     44500   0.87074636     1.287979       0.062940363    1.3509194    
     45000   0.91569795     1.3544699      0.11830675     1.4727766    
     45500   1.0212703      1.510629       0.12004374     1.6306728    
     46000   1.0408863      1.5396443      0.046615108    1.5862595    
     46500   0.98652613     1.4592366      0.11062582     1.5698624    
     47000   1.1008558      1.6283492      0.048598665    1.6769478    
     47500   1.0404318      1.538972       0.14233582     1.6813078    
     48000   0.9017423      1.3338272      0.089808451    1.4236356    
     48500   0.98042446     1.4502112      0.11068173     1.5608929    
     49000   1.0361391      1.5326225      0.058114224    1.5907367    
     49500   1.0205723      1.5095965      0.13562479     1.6452213    
     50000   1.224217       1.810821       0.13648699     1.947308     
     50500   1.0288054      1.5217746      0.025560208    1.5473348    
     51000   0.92561949     1.3691455      0.12746458     1.4966101    
     51500   0.85160255     1.2596621      0.080394007    1.3400561    
     52000   0.91489573     1.3532833      0.11911844     1.4724017    
     52500   0.97884107     1.4478691      0.1438436      1.5917127    
     53000   1.2003798      1.7755618      0.12769461     1.9032564    
     53500   0.93715394     1.3862069      0.07114396     1.4573508    
     54000   1.0961275      1.6213553      0.057401062    1.6787564    
     54500   1.0117678      1.4965732      0.090831398    1.5874046    
     55000   1.1046063      1.6338968      0.046109869    1.6800067    
     55500   1.100647       1.6280403      0.082815125    1.7108555    
     56000   0.93112749     1.3772927      0.065685155    1.4429779    
     56500   1.0452585      1.5461115      0.078269495    1.624381     
     57000   0.94030282     1.3908646      0.14885868     1.5397233    
     57500   1.0904502      1.6129576      0.061046052    1.6740036    
     58000   0.94368894     1.3958732      0.13311785     1.5289911    
     58500   1.0442134      1.5445657      0.19323723     1.7378029    
     59000   1.1774036      1.7415761      0.047066782    1.7886429    
     59500   1.0186836      1.5068029      0.10690336     1.6137062    
     60000   1.2158277      1.7984119      0.067032002    1.8654439    
     60500   0.98734662     1.4604502      0.1396426      1.6000928    
     61000   0.92528729     1.3686541      0.11530009     1.4839542    
     61500   1.0222925      1.5121411      0.18944062     1.7015817    
     62000   0.88109114     1.3032806      0.1069406      1.4102212    
     62500   1.0661915      1.5770749      0.072594519    1.6496695    
     63000   1.0377714      1.5350369      0.14346481     1.6785017    
     63500   1.0995254      1.6263813      0.051889992    1.6782713    
     64000   1.0165812      1.5036931      0.091632904    1.595326     
     64500   1.1336706      1.6768877      0.074222638    1.7511104    
     65000   0.9350554      1.3831028      0.092049628    1.4751524    
     65500   1.0196459      1.5082263      0.077769435    1.5859957    
     66000   1.0870305      1.6078993      0.088987353    1.6968866    
     66500   0.98226098     1.4529277      0.062370453    1.5152982    
     67000   0.94681796     1.4005016      0.099026245    1.4995278    
     67500   0.94617257     1.3995469      0.085805924    1.4853529    
     68000   0.92996368     1.3755713      0.086523239    1.4620945    
     68500   1.0076674      1.4905081      0.15772334     1.6482314    
     69000   1.1522968      1.704439       0.12043786     1.8248769    
     69500   1.114206       1.6480964      0.12647505     1.7745714    
     70000   1.2517298      1.851517       0.1157275      1.9672445    
     70500   1.0476601      1.5496638      0.031437117    1.581101     
     71000   1.0200352      1.5088021      0.064556822    1.5733589    
     71500   0.95079987     1.4063915      0.070721651    1.4771131    
     72000   1.0885826      1.6101951      0.13006434     1.7402594    
     72500   1.0205181      1.5095164      0.08624335     1.5957597    
     73000   1.2170896      1.8002783      0.067023883    1.8673022    
     73500   1.0117426      1.4965359      0.14137568     1.6379116    
     74000   0.99048395     1.4650908      0.10972303     1.5748139    
     74500   1.0429546      1.5427037      0.07336954     1.6160732    
     75000   0.93809962     1.3876057      0.082442727    1.4700484    
     75500   1.0948584      1.619478       0.034907343    1.6543853    
     76000   0.98612815     1.4586479      0.04982356     1.5084714    
     76500   1.2006513      1.7759633      0.14850423     1.9244676    
     77000   1.2303357      1.8198716      0.14198604     1.9618577    
     77500   1.2423176      1.8375948      0.10414076     1.9417356    
     78000   1.0415321      1.5405996      0.095225684    1.6358253    
     78500   0.96224499     1.4233207      0.10041476     1.5237355    
     79000   1.0806822      1.5985091      0.020896818    1.619406     
     79500   0.96391103     1.4257851      0.063935622    1.4897207    
     80000   0.92295695     1.3652071      0.060197231    1.4254044    
     80500   0.95314771     1.4098643      0.082280921    1.4921452    
     81000   0.94147726     1.3926018      0.18652909     1.5791309    
     81500   0.85938982     1.2711808      0.22368519     1.494866     
     82000   1.1896691      1.7597189      0.13520338     1.8949223    
     82500   0.99797701     1.4761743      0.072075137    1.5482495    
     83000   1.0061997      1.488337       0.059235349    1.5475724    
     83500   1.0214955      1.5109621      0.068760522    1.5797227    
     84000   0.99639645     1.4738364      0.032623918    1.5064603    
     84500   1.0866725      1.6073697      0.088314736    1.6956844    
     85000   1.108522       1.6396888      0.085286512    1.7249753    
     85500   0.90922455     1.3448946      0.065583703    1.4104784    
     86000   0.98030361     1.4500324      0.19351458     1.643547     
     86500   1.0290383      1.5221191      0.056615292    1.5787344    
     87000   1.073299       1.587588       0.15211176     1.7396998    
     87500   0.95748204     1.4162755      0.098724273    1.5149998    
     88000   1.0226535      1.512675       0.14781533     1.6604903    
     88500   1.1628106      1.7199906      0.131303       1.8512936    
     89000   1.2284396      1.817067       0.10317545     1.9202424    
     89500   0.9420105      1.3933905      0.050064881    1.4434554    
     90000   1.0095732      1.493327       0.12712888     1.6204558    
     90500   1.0062561      1.4884205      0.16171687     1.6501373    
     91000   0.99994109     1.4790795      0.097622891    1.5767024    
     91500   1.1189312      1.6550857      0.074397702    1.7294834    
     92000   0.91721326     1.3567113      0.15654522     1.5132565    
     92500   1.0789368      1.5959273      0.085733056    1.6816603    
     93000   0.97546068     1.4428689      0.11056264     1.5534316    
     93500   1.0780514      1.5946177      0.10616228     1.7007799    
     94000   1.0313485      1.5255363      0.079638022    1.6051743    
     94500   0.97890804     1.4479681      0.050421416    1.4983896    
     95000   1.1212957      1.6585832      0.099872988    1.7584562    
     95500   0.97535591     1.4427139      0.16071829     1.6034322    
     96000   1.0660321      1.5768392      0.13663155     1.7134707    
     96500   1.0308881      1.5248553      0.10933015     1.6341854    
     97000   0.82099043     1.2143817      0.083733531    1.2981152    
     97500   0.87095726     1.2882909      0.069413064    1.357704     
     98000   1.1578188      1.712607       0.049496001    1.762103     
     98500   1.1275289      1.6678032      0.12095891     1.7887621    
     99000   0.97813327     1.4468221      0.06909071     1.5159128    
     99500   0.96330592     1.42489        0.097133144    1.5220231    
    100000   1.0055612      1.4873926      0.15168091     1.6390735    
    100021   0.97088254     1.4360971      0.13782161     1.5739187    
Loop time of 0.63845 on 1 procs for 100000 steps with 72 atoms

Performance: 13532771.403 tau/day, 156629.299 timesteps/s, 11.277 Matom-step/s
134.4% CPU use with 1 MPI tasks x 1 OpenMP threads

MPI task timing breakdown:
Section |  min time  |  avg time  |  max time  |%varavg| %total
---------------------------------------------------------------
Pair    | 0.070372   | 0.070372   | 0.070372   |   0.0 | 11.02
Neigh   | 0.0082202  | 0.0082202  | 0.0082202  |   0.0 |  1.29
Comm    | 0.13435    | 0.13435    | 0.13435    |   0.0 | 21.04
Output  | 0.0035044  | 0.0035044  | 0.0035044  |   0.0 |  0.55
Modify  | 0.39618    | 0.39618    | 0.39618    |   0.0 | 62.05
Other   |            | 0.02582    |            |       |  4.04

Nlocal:             72 ave          72 max          72 min
Histogram: 1 0 0 0 0 0 0 0 0 0
Nghost:            161 ave         161 max         161 min
Histogram: 1 0 0 0 0 0 0 0 0 0
Neighs:            163 ave         163 max         163 min
Histogram: 1 0 0 0 0 0 0 0 0 0

Total # of neighbors = 163
Ave neighs/atom = 2.2638889
Neighbor list builds = 274
Dangerous builds = 0

write_data data.${outfile} nocoeff nofix
write_data data.1709053749 nocoeff nofix
System init for write_data ...
Generated 0 of 0 mixed pair_coeff terms from geometric mixing rule
Total wall time: 0:00:00
