LAMMPS (21 Nov 2023)
OMP_NUM_THREADS environment is not set. Defaulting to 1 thread. (src/comm.cpp:98)
  using 1 OpenMP thread(s) per MPI task
###variable outfile string L15.17
###variable L equal 15.17

units lj

newton off
atom_style      sphere
boundary        p p p
comm_modify     mode single vel yes


region      boxid block 0.0     $L      0.0       $L      0.0       $L
region      boxid block 0.0     6.563      0.0       $L      0.0       $L
region      boxid block 0.0     6.563      0.0       6.563      0.0       $L
region      boxid block 0.0     6.563      0.0       6.563      0.0       6.563
#create_box  1 boxid
include create_box.in
create_box 1 boxid
Created orthogonal box = (0 0 0) to (6.563 6.563 6.563)
  1 by 1 by 1 MPI processor grid


######
include create_np.in
create_atoms 1 random 54 7788 boxid
Created 54 atoms
  using lattice units in orthogonal box = (0 0 0) to (6.563 6.563 6.563)
  create_atoms CPU = 0.000 seconds
velocity    all create 1.0 87287 dist gaussian

#####
include particles.in
set type 1 diameter 1.0
Setting atom values ...
  54 settings made for diameter
set type 1 mass 26.0
Setting atom values ...
  54 settings made for mass

###
fix 1 all langevin 1.0 1.0 0.1 12345
fix 2 all nve/sphere

###
pair_style lj/cut 1.
include pots_lj_lan.in
pair_coeff 1 1 10.0 1.0 1.122462048309373
pair_modify shift yes



minimize          1.0e-4 1.0e-6 1000 1000
Generated 0 of 0 mixed pair_coeff terms from geometric mixing rule
Neighbor list info ...
  update: every = 1 steps, delay = 0 steps, check = yes
  max neighbors/atom: 2000, page size: 100000
  master list distance cutoff = 1.422462
  ghost atom cutoff = 1.422462
  binsize = 0.71123102, bins = 10 10 10
  1 neighbor lists, perpetual/occasional/extra = 1 0 0
  (1) pair lj/cut, perpetual
      attributes: half, newton off
      pair build: half/bin/newtoff
      stencil: full/bin/3d
      bin: standard
Per MPI rank memory allocation (min/avg/max) = 5.445 | 5.445 | 5.445 Mbytes
   Step          Temp          E_pair         E_mol          TotEng         Press     
         0   49.656342      1.7780833e+08  0              1.778084e+08   1.3586692e+08
        22   49.656342      3.9046955e-14  0              73.105171      9.309865     
Loop time of 0.000457937 on 1 procs for 22 steps with 54 atoms

444.6% CPU use with 1 MPI tasks x 1 OpenMP threads

Minimization stats:
  Stopping criterion = quadratic factors are zero
  Energy initial, next-to-last, final = 
      177808330.103897 3.90469549697796e-14 3.90469549697796e-14
  Force two-norm initial, final = 8.1252325e+11 6.943162e-05
  Force max component initial, final = 4.9505698e+11 3.7791452e-05
  Final line search alpha, max atom move = 1 3.7791452e-05
  Iterations, force evaluations = 22 69

MPI task timing breakdown:
Section |  min time  |  avg time  |  max time  |%varavg| %total
---------------------------------------------------------------
Pair    | 6.423e-05  | 6.423e-05  | 6.423e-05  |   0.0 | 14.03
Neigh   | 0.00014575 | 0.00014575 | 0.00014575 |   0.0 | 31.83
Comm    | 0.00011271 | 0.00011271 | 0.00011271 |   0.0 | 24.61
Output  | 0          | 0          | 0          |   0.0 |  0.00
Modify  | 0          | 0          | 0          |   0.0 |  0.00
Other   |            | 0.0001353  |            |       | 29.54

Nlocal:             54 ave          54 max          54 min
Histogram: 1 0 0 0 0 0 0 0 0 0
Nghost:            117 ave         117 max         117 min
Histogram: 1 0 0 0 0 0 0 0 0 0
Neighs:             83 ave          83 max          83 min
Histogram: 1 0 0 0 0 0 0 0 0 0

Total # of neighbors = 83
Ave neighs/atom = 1.537037
Neighbor list builds = 7
Dangerous builds = 0

thermo_style custom step temp ke pe etotal
thermo 500
timestep 0.001
#dump    id all custom 5000 out_lan_${outfile}.lammpstrj id type radius mass xu yu zu vx vy vz fx fy fz
dump    id all custom 5000 out_lan_${outfile}.lammpstrj id type radius mass x y z
dump    id all custom 5000 out_lan_1708715286.lammpstrj id type radius mass x y z
run 100000
Generated 0 of 0 mixed pair_coeff terms from geometric mixing rule
Per MPI rank memory allocation (min/avg/max) = 4.32 | 4.32 | 4.32 Mbytes
   Step          Temp          KinEng         PotEng         TotEng    
        22   49.656342      73.105171      3.9046955e-14  73.105171    
       500   0.92236333     1.3579238      0.087593361    1.4455172    
      1000   1.1209204      1.6502439      0.021143371    1.6713872    
      1500   1.2351398      1.8184003      0.042794849    1.8611952    
      2000   1.0948878      1.6119182      0.17745254     1.7893707    
      2500   1.121494       1.6510884      0.062506682    1.713595     
      3000   0.97428564     1.434365       0.044648344    1.4790133    
      3500   1.0889017      1.6031053      0.026449414    1.6295547    
      4000   1.0954875      1.612801       0.012188388    1.6249894    
      4500   1.0734631      1.5803762      0.039659709    1.6200359    
      5000   1.1252542      1.6566243      0.066037338    1.7226616    
      5500   1.002513       1.4759219      0.064088279    1.5400101    
      6000   0.98517557     1.4503974      0.063352639    1.51375      
      6500   1.010915       1.4882916      0.014921875    1.5032135    
      7000   1.1699417      1.7224142      0.041531172    1.7639454    
      7500   0.94463618     1.3907144      0.093927212    1.4846416    
      8000   1.09931        1.6184287      0.032273731    1.6507024    
      8500   0.92702616     1.3647885      0.0087899724   1.3735785    
      9000   1.0156383      1.4952453      0.02379774     1.519043     
      9500   0.97442913     1.4345762      0.043219718    1.4777959    
     10000   1.2085931      1.7793176      0.023143017    1.8024606    
     10500   1.070535       1.5760654      0.06945867     1.6455241    
     11000   0.89862767     1.3229796      0.066766048    1.3897457    
     11500   0.86775471     1.2775278      0.03268234     1.3102101    
     12000   1.073404       1.5802892      0.053619022    1.6339082    
     12500   1.1815897      1.7395625      0.098603469    1.838166     
     13000   0.9854103      1.4507429      0.025392512    1.4761354    
     13500   0.91119084     1.3414754      0.022859983    1.3643354    
     14000   0.99904609     1.4708179      0.021190657    1.4920085    
     14500   1.0128135      1.4910865      0.05880434     1.5498908    
     15000   1.0760498      1.5841844      0.0066866045   1.590871     
     15500   0.92635543     1.363801       0.056813307    1.4206144    
     16000   1.0299461      1.5163096      0.021331413    1.537641     
     16500   0.69841959     1.0282288      0.029541898    1.0577707    
     17000   1.1351977      1.6712633      0.046991455    1.7182548    
     17500   0.89516999     1.3178892      0.012873186    1.3307623    
     18000   0.96726241     1.4240252      0.016363908    1.4403891    
     18500   0.96624354     1.4225252      0.040943424    1.4634686    
     19000   1.1059349      1.628182       0.026726071    1.654908     
     19500   1.0532418      1.5506059      0.046684747    1.5972907    
     20000   0.89420531     1.3164689      0.036016499    1.3524854    
     20500   0.9508022      1.3997921      0.061723309    1.4615154    
     21000   1.0692758      1.5742116      0.0043559763   1.5785675    
     21500   1.0957632      1.6132069      0.0092635976   1.6224705    
     22000   1.1383272      1.6758706      0.013352623    1.6892233    
     22500   0.95175659     1.4011972      0              1.4011972    
     23000   0.9329344      1.3734868      0.020301656    1.3937884    
     23500   1.0162007      1.4960733      0.042462029    1.5385353    
     24000   0.91874136     1.3525914      0.016154825    1.3687463    
     24500   1.0931302      1.6093306      0.025048958    1.6343795    
     25000   0.92678564     1.3644344      0.012994876    1.3774293    
     25500   0.79425677     1.1693225      3.8057827e-05  1.1693605    
     26000   0.92630962     1.3637336      0.032076922    1.3958105    
     26500   1.0460386      1.5400013      0.013969578    1.5539709    
     27000   1.0464727      1.5406403      0.08249691     1.6231372    
     27500   0.97399946     1.4339436      0.15334449     1.5872881    
     28000   1.1825105      1.7409183      0.046421089    1.7873394    
     28500   1.099176       1.6182314      0.019645808    1.6378772    
     29000   1.0034692      1.4773297      0.016244735    1.4935744    
     29500   0.99149095     1.459695       0.026127372    1.4858224    
     30000   1.0983019      1.6169444      0.0030583078   1.6200027    
     30500   1.2167432      1.7913164      0.0082475889   1.799564     
     31000   1.1171275      1.64466        0.015304403    1.6599644    
     31500   1.0010366      1.4737484      0.0064464999   1.4801949    
     32000   1.0043942      1.4786915      0.083968425    1.5626599    
     32500   0.92045366     1.3551123      0.025764088    1.3808764    
     33000   1.1879131      1.748872       0.043545544    1.7924175    
     33500   1.0636018      1.5658582      0.017436704    1.5832949    
     34000   0.9306596      1.3701377      0.028729054    1.3988668    
     34500   0.99240517     1.4610409      0.0061643118   1.4672053    
     35000   0.91334787     1.344651       0.0077186669   1.3523697    
     35500   0.9299013      1.3690214      0.024816092    1.3938374    
     36000   1.0983429      1.6170049      0.059367961    1.6763729    
     36500   1.0024833      1.4758782      0.10339714     1.5792753    
     37000   1.157261       1.7037453      0.051958617    1.7557039    
     37500   0.82893682     1.2203792      0.051304277    1.2716835    
     38000   1.0173434      1.4977556      0.11735201     1.6151076    
     38500   1.1578867      1.7046665      0.016217073    1.7208836    
     39000   1.309992       1.9285993      0.03957633     1.9681756    
     39500   1.0052087      1.4798905      0.04410651     1.523997     
     40000   1.0814313      1.5921072      0.057911094    1.6500183    
     40500   1.1721514      1.7256674      0.022319409    1.7479868    
     41000   0.99176461     1.4600979      0.089390467    1.5494884    
     41500   0.94214556     1.3870476      0.025797751    1.4128454    
     42000   0.85399401     1.257269       0.036851159    1.2941201    
     42500   1.071874       1.5780367      0.015107915    1.5931446    
     43000   0.91937653     1.3535266      0.014534815    1.3680614    
     43500   0.91607169     1.3486611      0.045090204    1.3937513    
     44000   1.1570037      1.7033666      0.028979753    1.7323463    
     44500   0.85391505     1.2571527      0.0052866472   1.2624394    
     45000   1.0184673      1.4994101      0.021032996    1.5204431    
     45500   1.0336792      1.5218054      0.079970378    1.6017758    
     46000   0.89814437     1.3222681      0.0020088607   1.324277     
     46500   1.1370451      1.673983       0.025393412    1.6993764    
     47000   0.95456516     1.405332       0.0062828114   1.4116149    
     47500   1.0114676      1.489105       0.059718435    1.5488235    
     48000   1.1301598      1.6638464      0.033959637    1.697806     
     48500   0.95651874     1.4082082      0.019846616    1.4280548    
     49000   1.2287298      1.8089633      0.0027790257   1.8117423    
     49500   0.92633147     1.3637658      0.0015707632   1.3653365    
     50000   0.97357214     1.4333145      0.015770637    1.4490852    
     50500   0.945518       1.3920126      0.034672364    1.426685     
     51000   1.0776866      1.5865942      0.14920874     1.735803     
     51500   1.042479       1.5347608      0.01851348     1.5532743    
     52000   1.0918186      1.6073996      0.082631703    1.6900313    
     52500   0.95196734     1.4015075      0.042101534    1.443609     
     53000   0.971357       1.4300534      0.019880633    1.449934     
     53500   0.87894779     1.2940065      0.025018295    1.3190248    
     54000   0.96143534     1.4154465      0.047033606    1.4624801    
     54500   1.1547251      1.700012       0.028077911    1.7280899    
     55000   0.93358712     1.3744477      0.010967909    1.3854156    
     55500   0.94392384     1.3896656      0.018982295    1.4086479    
     56000   0.91032295     1.3401977      0.055374503    1.3955722    
     56500   0.9223333      1.3578796      0.052344291    1.4102239    
     57000   0.96520821     1.421001       0.026782153    1.4477831    
     57500   1.1237023      1.6543395      0.025989805    1.6803293    
     58000   1.0320268      1.5193728      0.032768997    1.5521418    
     58500   1.1412234      1.6801345      0.017211072    1.6973456    
     59000   1.0910116      1.6062115      0.039045177    1.6452567    
     59500   1.1314175      1.6656979      0.063068447    1.7287664    
     60000   0.9627169      1.4173332      0.016069092    1.4334023    
     60500   0.91879546     1.3526711      0.019302801    1.3719739    
     61000   1.041477       1.5332856      0.080140122    1.6134257    
     61500   0.90978265     1.3394022      0.018872802    1.358275     
     62000   0.98142349     1.4448735      0.048208033    1.4930815    
     62500   1.0723539      1.5787432      0.02986223     1.6086054    
     63000   1.0631499      1.5651929      0.050630899    1.6158238    
     63500   0.99748114     1.4685139      0.074009631    1.5425235    
     64000   1.0574891      1.556859       0.072517534    1.6293766    
     64500   0.90904553     1.338317       0.065400898    1.4037179    
     65000   1.0628097      1.5646921      0.066079815    1.6307719    
     65500   0.93447873     1.3757604      0.024723206    1.4004836    
     66000   1.0061555      1.4812845      0.012423091    1.4937076    
     66500   1.0054416      1.4802335      0.071642643    1.5518762    
     67000   1.1172822      1.6448877      0.017635695    1.6625234    
     67500   0.94115872     1.3855948      0.067815827    1.4534106    
     68000   1.1807279      1.7382939      0.017841427    1.7561353    
     68500   0.96596029     1.4221082      0.02285933     1.4449675    
     69000   0.86851035     1.2786402      0.030961336    1.3096016    
     69500   0.88569613     1.3039415      0.010692338    1.3146339    
     70000   1.1446277      1.6851464      0.10422973     1.7893761    
     70500   1.0078252      1.4837427      0.057244629    1.5409873    
     71000   1.0192643      1.5005835      0.0022422444   1.5028257    
     71500   1.1049345      1.6267092      0.046532032    1.6732412    
     72000   0.79399554     1.1689379      0.065014232    1.2339521    
     72500   1.0682617      1.5727186      0.085909657    1.6586282    
     73000   1.024194       1.5078412      0.017066471    1.5249077    
     73500   1.1435557      1.6835681      0.067115816    1.7506839    
     74000   1.1394247      1.6774863      0.041387235    1.7188736    
     74500   1.1318448      1.6663271      0.0061184321   1.6724455    
     75000   0.99247751     1.4611474      0.10976374     1.5709112    
     75500   1.1395311      1.677643       0.017455838    1.6950988    
     76000   1.1774283      1.7334361      0.0053212798   1.7387574    
     76500   0.88181982     1.2982347      0.025363348    1.3235981    
     77000   1.0897446      1.6043462      0.02858747     1.6329337    
     77500   1.0131998      1.4916553      0.03952368     1.531179     
     78000   1.0692468      1.5741689      0.010504651    1.5846736    
     78500   1.0251223      1.5092078      0.0070121059   1.5162199    
     79000   1.0635165      1.5657327      0.0011398581   1.5668725    
     79500   0.90170887     1.3275158      0.077984604    1.4055004    
     80000   1.2119723      1.7842926      0.0516681      1.8359607    
     80500   0.99582931     1.466082       0.051454306    1.5175363    
     81000   0.78748379     1.1593511      0.04398297     1.2033341    
     81500   1.4034425      2.0661793      0.023720189    2.0898995    
     82000   0.8706972      1.2818598      0.041486935    1.3233467    
     82500   1.1298242      1.6633523      0.00262903     1.6659813    
     83000   1.0610625      1.5621198      0.038533672    1.6006535    
     83500   1.0885946      1.6026531      0.00035867394  1.6030118    
     84000   0.96015877     1.4135671      0.014350283    1.4279174    
     84500   1.0100433      1.4870082      0.036216558    1.5232247    
     85000   0.97013132     1.4282489      0.011390269    1.4396392    
     85500   0.96584376     1.4219366      0.025450111    1.4473868    
     86000   1.077371       1.5861295      0.015576978    1.6017065    
     86500   0.8002706      1.1781762      0.012527878    1.190704     
     87000   1.0452722      1.5388729      0.01517122     1.5540442    
     87500   1.1451827      1.6859635      0.069397954    1.7553614    
     88000   1.1206502      1.6498461      0.093968715    1.7438148    
     88500   1.1311368      1.6652848      0.056204571    1.7214894    
     89000   1.0195091      1.5009439      0.036984805    1.5379287    
     89500   0.93008742     1.3692954      0.032879901    1.4021753    
     90000   0.74414985     1.095554       0.071561326    1.1671153    
     90500   0.93113982     1.3708447      0.060782171    1.4316269    
     91000   1.0847188      1.5969471      0.04233443     1.6392816    
     91500   1.0201906      1.5019472      0.053202668    1.5551499    
     92000   1.0197195      1.5012537      0.016246525    1.5175002    
     92500   0.94042566     1.3845156      0.052001396    1.4365169    
     93000   0.86998194     1.2808067      0.027049218    1.307856     
     93500   1.0278527      1.5132276      0.01001439     1.523242     
     94000   1.0786702      1.5880423      0.044597809    1.6326401    
     94500   0.91494729     1.3470057      0.020404398    1.3674101    
     95000   0.97043138     1.4286906      0.0084642983   1.4371549    
     95500   1.1674349      1.7187236      0.035389537    1.7541131    
     96000   1.0480196      1.5429178      0.11227352     1.6551913    
     96500   0.88895719     1.3087425      0.0046465444   1.3133891    
     97000   0.93180082     1.3718179      0.035058266    1.4068761    
     97500   1.0961137      1.613723       0.038535309    1.6522583    
     98000   0.97399298     1.4339341      0.040263768    1.4741979    
     98500   0.93761594     1.380379       0.024344363    1.4047234    
     99000   0.97254226     1.4317983      0.0048341926   1.4366325    
     99500   1.0182085      1.4990292      0.0032123656   1.5022415    
    100000   1.0799147      1.5898744      0.013204786    1.6030792    
    100022   1.0488485      1.5441381      0.01646077     1.5605989    
Loop time of 0.494016 on 1 procs for 100000 steps with 54 atoms

Performance: 17489315.238 tau/day, 202422.630 timesteps/s, 10.931 Matom-step/s
137.0% CPU use with 1 MPI tasks x 1 OpenMP threads

MPI task timing breakdown:
Section |  min time  |  avg time  |  max time  |%varavg| %total
---------------------------------------------------------------
Pair    | 0.032393   | 0.032393   | 0.032393   |   0.0 |  6.56
Neigh   | 0.0054258  | 0.0054258  | 0.0054258  |   0.0 |  1.10
Comm    | 0.10137    | 0.10137    | 0.10137    |   0.0 | 20.52
Output  | 0.010128   | 0.010128   | 0.010128   |   0.0 |  2.05
Modify  | 0.31907    | 0.31907    | 0.31907    |   0.0 | 64.59
Other   |            | 0.02563    |            |       |  5.19

Nlocal:             54 ave          54 max          54 min
Histogram: 1 0 0 0 0 0 0 0 0 0
Nghost:             95 ave          95 max          95 min
Histogram: 1 0 0 0 0 0 0 0 0 0
Neighs:             68 ave          68 max          68 min
Histogram: 1 0 0 0 0 0 0 0 0 0

Total # of neighbors = 68
Ave neighs/atom = 1.2592593
Neighbor list builds = 269
Dangerous builds = 0

write_data data.${outfile} nocoeff nofix
write_data data.1708715286 nocoeff nofix
System init for write_data ...
Generated 0 of 0 mixed pair_coeff terms from geometric mixing rule
Total wall time: 0:00:00
