LAMMPS (21 Nov 2023)
OMP_NUM_THREADS environment is not set. Defaulting to 1 thread. (src/comm.cpp:98)
  using 1 OpenMP thread(s) per MPI task
###variable outfile string L15.17
###variable L equal 15.17

units lj

newton off
atom_style      sphere
boundary        p p p
comm_modify     mode single vel yes


region      boxid block 0.0     $L      0.0       $L      0.0       $L
region      boxid block 0.0     6.563429036687327      0.0       $L      0.0       $L
region      boxid block 0.0     6.563429036687327      0.0       6.563429036687327      0.0       $L
region      boxid block 0.0     6.563429036687327      0.0       6.563429036687327      0.0       6.563429036687327
#create_box  1 boxid
include create_box.in
create_box 1 boxid
Created orthogonal box = (0 0 0) to (6.563429 6.563429 6.563429)
  1 by 1 by 1 MPI processor grid


######
include create_np.in
create_atoms 1 random 54 3174 boxid
Created 54 atoms
  using lattice units in orthogonal box = (0 0 0) to (6.563429 6.563429 6.563429)
  create_atoms CPU = 0.001 seconds
velocity    all create 1.0 87287 dist gaussian

#####
include particles.in
set type 1 diameter 1.0
Setting atom values ...
  54 settings made for diameter
set type 1 mass 26.0
Setting atom values ...
  54 settings made for mass

###
fix 1 all langevin 1.0 1.0 0.1 12345
fix 2 all nve/sphere

###
pair_style lj/cut 1.
include pots_lj_lan.in
pair_coeff 1 1 10.0 1.0 1.122462048309373
pair_modify shift yes



minimize          1.0e-4 1.0e-6 1000 1000
Generated 0 of 0 mixed pair_coeff terms from geometric mixing rule
Neighbor list info ...
  update: every = 1 steps, delay = 0 steps, check = yes
  max neighbors/atom: 2000, page size: 100000
  master list distance cutoff = 1.422462
  ghost atom cutoff = 1.422462
  binsize = 0.71123102, bins = 10 10 10
  1 neighbor lists, perpetual/occasional/extra = 1 0 0
  (1) pair lj/cut, perpetual
      attributes: half, newton off
      pair build: half/bin/newtoff
      stencil: full/bin/3d
      bin: standard
Per MPI rank memory allocation (min/avg/max) = 5.445 | 5.445 | 5.445 Mbytes
   Step          Temp          E_pair         E_mol          TotEng         Press     
         0   49.656342      22604.666      0              22677.771      17397.878    
        14   49.656342      0.00016939888  0              73.10534       9.3138014    
Loop time of 0.000322238 on 1 procs for 14 steps with 54 atoms

418.6% CPU use with 1 MPI tasks x 1 OpenMP threads

Minimization stats:
  Stopping criterion = quadratic factors are zero
  Energy initial, next-to-last, final = 
      22604.6658212494 0.000169398881977723 0.000169398881977723
  Force two-norm initial, final = 31773258 5.0258947
  Force max component initial, final = 22218269 2.8775875
  Final line search alpha, max atom move = 0.0043439166 0.0125
  Iterations, force evaluations = 14 41

MPI task timing breakdown:
Section |  min time  |  avg time  |  max time  |%varavg| %total
---------------------------------------------------------------
Pair    | 3.5313e-05 | 3.5313e-05 | 3.5313e-05 |   0.0 | 10.96
Neigh   | 0.0001122  | 0.0001122  | 0.0001122  |   0.0 | 34.82
Comm    | 7.491e-05  | 7.491e-05  | 7.491e-05  |   0.0 | 23.25
Output  | 0          | 0          | 0          |   0.0 |  0.00
Modify  | 0          | 0          | 0          |   0.0 |  0.00
Other   |            | 9.982e-05  |            |       | 30.98

Nlocal:             54 ave          54 max          54 min
Histogram: 1 0 0 0 0 0 0 0 0 0
Nghost:            120 ave         120 max         120 min
Histogram: 1 0 0 0 0 0 0 0 0 0
Neighs:             86 ave          86 max          86 min
Histogram: 1 0 0 0 0 0 0 0 0 0

Total # of neighbors = 86
Ave neighs/atom = 1.5925926
Neighbor list builds = 5
Dangerous builds = 0

thermo_style custom step temp ke pe etotal
thermo 500
timestep 0.001
#dump    id all custom 5000 out_lan_${outfile}.lammpstrj id type radius mass xu yu zu vx vy vz fx fy fz
dump    id all custom 5000 out_lan_${outfile}.lammpstrj id type radius mass x y z
dump    id all custom 5000 out_lan_1708799635.lammpstrj id type radius mass x y z
run 100000
Generated 0 of 0 mixed pair_coeff terms from geometric mixing rule
Per MPI rank memory allocation (min/avg/max) = 4.32 | 4.32 | 4.32 Mbytes
   Step          Temp          KinEng         PotEng         TotEng    
        14   49.656342      73.105171      0.00016939888  73.10534     
       500   0.90083838     1.3262343      0.1141243      1.4403586    
      1000   1.1763815      1.731895       0.03104263     1.7629377    
      1500   1.1020252      1.622426       0.19992227     1.8223483    
      2000   1.213802       1.7869862      0.039022011    1.8260082    
      2500   1.2391518      1.8243068      0.017829522    1.8421363    
      3000   0.80709625     1.188225       0.021390254    1.2096153    
      3500   1.16658        1.717465       0.017475961    1.7349409    
      4000   1.1623014      1.711166       0.12294295     1.8341089    
      4500   1.1334693      1.6687187      0.02695064     1.6956694    
      5000   1.0559398      1.554578       0.0042414934   1.5588195    
      5500   1.0532357      1.550597       0.021203699    1.5718007    
      6000   1.063902       1.5663002      0.034985518    1.6012858    
      6500   0.95503912     1.4060298      0.032384986    1.4384148    
      7000   1.0465608      1.5407701      0.095191227    1.6359614    
      7500   0.86019925     1.2664045      0.019603456    1.2860079    
      8000   1.0533765      1.5508043      0.018408857    1.5692132    
      8500   1.0433649      1.536065       0.063979087    1.6000441    
      9000   1.1105624      1.6349946      0.026753487    1.6617481    
      9500   1.0132934      1.491793       0.022081249    1.5138742    
     10000   1.1366215      1.6733595      0.076979381    1.7503388    
     10500   1.0761791      1.5843748      0.078388825    1.6627636    
     11000   0.8918579      1.313013       0.024218005    1.337231     
     11500   1.056678       1.5556649      0.023666971    1.5793319    
     12000   1.1114974      1.6363712      0.013669639    1.6500408    
     12500   1.0963493      1.6140699      0.021521176    1.635591     
     13000   0.99518366     1.4651315      0.0037533179   1.4688848    
     13500   0.87847866     1.2933158      0.085758546    1.3790743    
     14000   1.1034771      1.6245634      0.042400091    1.6669635    
     14500   1.018875       1.5000104      0.029912529    1.529923     
     15000   1.0560847      1.5547914      0.065751406    1.6205428    
     15500   0.97181249     1.4307239      0.014466375    1.4451903    
     16000   0.99507334     1.4649691      0.12664084     1.5916099    
     16500   0.800742       1.1788702      0.1060157      1.2848859    
     17000   1.1476805      1.6896408      0.070655707    1.7602965    
     17500   0.90212203     1.3281241      0.019430117    1.3475542    
     18000   0.97305907     1.4325592      0.062749687    1.4953089    
     18500   0.92198904     1.3573728      0.028062952    1.3854357    
     19000   1.0336386      1.5217457      0.057490909    1.5792366    
     19500   1.0398127      1.5308354      0.027042503    1.5578779    
     20000   0.89806144     1.322146       0.022240568    1.3443866    
     20500   0.97375706     1.4335868      0.1192072      1.552794     
     21000   1.0633426      1.5654766      0.015174381    1.580651     
     21500   1.0710018      1.5767526      0.044000838    1.6207534    
     22000   1.1398624      1.6781308      0.022912504    1.7010433    
     22500   1.0076254      1.4834485      0.063704215    1.5471527    
     23000   1.0401145      1.5312796      0.014995255    1.5462749    
     23500   1.0441701      1.5372505      0.10009773     1.6373482    
     24000   0.90488602     1.3321933      0.027376596    1.3595699    
     24500   1.1030899      1.6239935      0.0043332369   1.6283268    
     25000   1.0554785      1.5538989      0.021984538    1.5758835    
     25500   0.84337694     1.2416383      0.049852437    1.2914907    
     26000   0.86710806     1.2765758      0.042156659    1.3187324    
     26500   1.0821475      1.5931616      0.0514295      1.6445911    
     27000   1.0935192      1.6099033      0.068344467    1.6782478    
     27500   0.95563917     1.4069132      0.026227074    1.4331403    
     28000   1.2204733      1.796808       0.037123765    1.8339317    
     28500   1.2037191      1.7721421      0.013548765    1.7856908    
     29000   1.0546286      1.5526476      0.051974487    1.6046221    
     29500   1.0393034      1.5300855      0.038586365    1.5686719    
     30000   1.0489429      1.5442771      0.033489801    1.5777669    
     30500   1.1704467      1.7231577      0.051514762    1.7746725    
     31000   1.0209405      1.5030513      0.034592815    1.5376441    
     31500   0.93606606     1.3780973      0.045131339    1.4232286    
     32000   1.0060342      1.4811059      0.17925463     1.6603606    
     32500   0.9763022      1.4373338      0.013102676    1.4504365    
     33000   1.2736024      1.8750257      0.038777645    1.9138033    
     33500   0.91128877     1.3416196      0.11751255     1.4591321    
     34000   0.90048665     1.3257165      0.034312983    1.3600294    
     34500   1.0590764      1.5591958      0.082106305    1.6413021    
     35000   0.9194681      1.3536614      0.02816976     1.3818311    
     35500   0.98954727     1.4568335      0.060953993    1.5177875    
     36000   1.1792363      1.7360978      0.013181012    1.7492788    
     36500   1.0484601      1.5435662      0.073518459    1.6170847    
     37000   1.0503395      1.5463331      0.073455135    1.6197883    
     37500   0.87824445     1.292971       0.098308991    1.39128      
     38000   1.0044165      1.4787243      0.0061353521   1.4848596    
     38500   1.0539326      1.5516231      0.056976572    1.6085996    
     39000   1.2887153      1.8972752      0.048156013    1.9454313    
     39500   1.0253105      1.5094849      0.035069504    1.5445544    
     40000   1.1627634      1.7118461      0.017392097    1.7292382    
     40500   1.1089539      1.6326265      0.12019869     1.7528252    
     41000   0.95486604     1.405775       0.014781374    1.4205564    
     41500   1.0596224      1.5599996      0.10692567     1.6669253    
     42000   0.76439469     1.1253588      0.081829465    1.2071883    
     42500   0.94336105     1.3888371      0.060704076    1.4495412    
     43000   0.80961227     1.1919292      0.088091261    1.2800204    
     43500   1.0407864      1.5322688      0.012401929    1.5446707    
     44000   1.1042832      1.6257503      0.049249943    1.6750002    
     44500   0.69887651     1.0289015      0.10480756     1.1337091    
     45000   1.0523049      1.5492266      0.06844883     1.6176755    
     45500   1.0714407      1.5773988      0.0074798306   1.5848787    
     46000   0.94877977     1.3968147      0.0025785291   1.3993932    
     46500   0.98706316     1.4531763      0.03066134     1.4838377    
     47000   1.0781678      1.5873026      0.050945745    1.6382484    
     47500   0.96888836     1.426419       0.03456955     1.4609885    
     48000   1.0690178      1.5738317      0.042924908    1.6167566    
     48500   1.0180788      1.4988383      0.085929532    1.5847678    
     49000   1.1906413      1.7528886      0.048664844    1.8015535    
     49500   0.9223049      1.3578378      0.035344712    1.3931825    
     50000   0.97165831     1.430497       0.063415202    1.4939122    
     50500   1.0089865      1.4854523      0.082260405    1.5677127    
     51000   1.0938423      1.6103789      0.029975788    1.6403547    
     51500   1.075539       1.5834325      0.036093499    1.619526     
     52000   1.0408258      1.5323268      0.068950418    1.6012773    
     52500   0.99850093     1.4700153      0.018051438    1.4880667    
     53000   1.0187324      1.4998005      0.024536639    1.5243372    
     53500   0.86166428     1.2685613      0.024242417    1.2928037    
     54000   0.98804841     1.4546268      0.024193807    1.4788206    
     54500   1.194834       1.7590611      0.075674786    1.8347359    
     55000   1.0370735      1.5268026      0.017179833    1.5439825    
     55500   0.97401674     1.4339691      0.0019142514   1.4358833    
     56000   0.97122505     1.4298591      0.073974167    1.5038333    
     56500   0.80538117     1.1857001      0.041073827    1.2267739    
     57000   1.0220818      1.5047315      0.023993408    1.5287249    
     57500   1.0328245      1.5205472      0.075417974    1.5959652    
     58000   0.86450147     1.2727383      0.054454104    1.3271924    
     58500   1.1081516      1.6314453      0.030754794    1.6622001    
     59000   1.1853281      1.7450664      0.04420829     1.7892747    
     59500   1.1305791      1.6644637      0.050784649    1.7152483    
     60000   0.96915399     1.42681        0.12907771     1.5558878    
     60500   0.92601219     1.3632957      0.029507999    1.3928037    
     61000   1.0146702      1.49382        0.021316703    1.5151367    
     61500   0.99293225     1.4618169      0.025555272    1.4873722    
     62000   0.98448863     1.449386       0.016307613    1.4656937    
     62500   1.0895646      1.6040813      0.036978565    1.6410598    
     63000   1.0693274      1.5742876      0.0011855026   1.5754731    
     63500   0.97820885     1.4401408      0.021204149    1.461345     
     64000   1.0861371      1.5990352      0.031703348    1.6307385    
     64500   0.96207941     1.4163947      0.015545016    1.4319397    
     65000   1.026166       1.5107444      0.042687228    1.5534316    
     65500   1.0661592      1.5696233      0.0374942      1.6071175    
     66000   1.2033454      1.7715919      0.06168143     1.8332733    
     66500   0.97814026     1.4400398      0.053282338    1.4933222    
     67000   1.1522071      1.6963049      0.01683844     1.7131433    
     67500   1.0027608      1.4762867      0.045795321    1.522082     
     68000   1.2494438      1.839459       0.043600893    1.8830599    
     68500   0.89731417     1.3210459      0.027827517    1.3488734    
     69000   0.79534032     1.1709177      0.04387747     1.2147952    
     69500   0.83660781     1.2316726      0.023121272    1.2547939    
     70000   1.1778752      1.7340941      0.032980509    1.7670746    
     70500   1.1034646      1.624545       0.072050577    1.6965956    
     71000   1.0960631      1.6136484      0.016678044    1.6303265    
     71500   1.1140633      1.6401488      0.0051324579   1.6452812    
     72000   0.77031224     1.1340708      0.038587777    1.1726586    
     72500   1.0623385      1.5639983      0.013088992    1.5770873    
     73000   1.0444684      1.5376896      0.011674071    1.5493636    
     73500   1.1528437      1.6972421      0.10613457     1.8033767    
     74000   1.1562184      1.7022104      0.049139674    1.7513501    
     74500   1.1164218      1.643621       0.07868152     1.7223025    
     75000   1.0454379      1.5391169      0.0093138748   1.5484308    
     75500   1.0731675      1.5799411      0.0042842682   1.5842253    
     76000   1.2536669      1.8456762      0.027938569    1.8736148    
     76500   0.90815801     1.3370104      0.022406326    1.3594167    
     77000   0.98800052     1.4545563      0.024721592    1.4792779    
     77500   1.0428229      1.5352671      0.014701295    1.5499684    
     78000   1.0227045      1.5056483      0.016395176    1.5220435    
     78500   0.92199362     1.3573795      0.06013669     1.4175162    
     79000   1.0287445      1.5145405      0.0045865481   1.519127     
     79500   0.79368062     1.1684742      0.019590732    1.188065     
     80000   1.1811666      1.7389397      0.022737472    1.7616772    
     80500   0.92352099     1.3596281      0.0073555365   1.3669837    
     81000   0.86456408     1.2728305      0.046503052    1.3193335    
     81500   1.2889484      1.8976185      0.089721437    1.9873399    
     82000   0.79539818     1.1710029      0.044315847    1.2153187    
     82500   1.2199873      1.7960925      0.023723338    1.8198158    
     83000   1.0591947      1.5593699      0.0061764651   1.5655464    
     83500   0.88580916     1.3041079      0.19411489     1.4982228    
     84000   1.0972822      1.6154432      0.069995959    1.6854392    
     84500   0.85285546     1.2555928      0.085724471    1.3413172    
     85000   0.87808502     1.2927363      0.071665868    1.3644022    
     85500   0.91358343     1.3449978      0.056216171    1.401214     
     86000   1.1310261      1.6651217      0.040972933    1.7060946    
     86500   0.93320711     1.3738882      0.018297959    1.3921862    
     87000   1.0550612      1.5532845      0.0087750043   1.5620595    
     87500   1.1793609      1.7362813      0.026597453    1.7628787    
     88000   1.1175367      1.6452623      0.035040829    1.6803031    
     88500   1.1950971      1.7594485      0.044201808    1.8036503    
     89000   0.97227626     1.4314067      0.019515452    1.4509222    
     89500   0.87098663     1.2822859      0.041840481    1.3241263    
     90000   0.78548451     1.1564078      0.020455267    1.176863     
     90500   0.92158363     1.3567759      0.046567288    1.4033432    
     91000   1.1657075      1.7161805      0.037319168    1.7534996    
     91500   1.0171688      1.4974986      0.032671566    1.5301701    
     92000   1.0436803      1.5365293      0.074603432    1.6111327    
     92500   1.0938281      1.6103581      0.046720746    1.6570788    
     93000   0.80937524     1.1915802      0.138145       1.3297252    
     93500   1.0072531      1.4829004      0.07114178     1.5540421    
     94000   1.0412715      1.532983       0.034438484    1.5674215    
     94500   1.0311005      1.5180091      0.014733968    1.5327431    
     95000   0.93845243     1.3816105      0.015700922    1.3973114    
     95500   1.2072394      1.7773247      0.051693797    1.8290185    
     96000   1.0915698      1.6070333      0.02987471     1.636908     
     96500   0.93246784     1.3727999      0.0095499095   1.3823498    
     97000   0.96187766     1.4160977      0.016861452    1.4329591    
     97500   1.0994553      1.6186425      0.12152706     1.7401695    
     98000   0.97330206     1.4329169      0.01963247     1.4525494    
     98500   0.91914719     1.3531889      0.0021547184   1.3553436    
     99000   0.97769271     1.4393809      0.010276738    1.4496577    
     99500   0.96960952     1.4274807      0.06822666     1.4957073    
    100000   1.1135137      1.6393395      0.017599839    1.6569394    
    100014   1.0559563      1.5546024      0.017826246    1.5724286    
Loop time of 0.442225 on 1 procs for 100000 steps with 54 atoms

Performance: 19537566.205 tau/day, 226129.238 timesteps/s, 12.211 Matom-step/s
153.4% CPU use with 1 MPI tasks x 1 OpenMP threads

MPI task timing breakdown:
Section |  min time  |  avg time  |  max time  |%varavg| %total
---------------------------------------------------------------
Pair    | 0.031299   | 0.031299   | 0.031299   |   0.0 |  7.08
Neigh   | 0.0046397  | 0.0046397  | 0.0046397  |   0.0 |  1.05
Comm    | 0.085241   | 0.085241   | 0.085241   |   0.0 | 19.28
Output  | 0.0037615  | 0.0037615  | 0.0037615  |   0.0 |  0.85
Modify  | 0.29595    | 0.29595    | 0.29595    |   0.0 | 66.92
Other   |            | 0.02134    |            |       |  4.82

Nlocal:             54 ave          54 max          54 min
Histogram: 1 0 0 0 0 0 0 0 0 0
Nghost:            110 ave         110 max         110 min
Histogram: 1 0 0 0 0 0 0 0 0 0
Neighs:             68 ave          68 max          68 min
Histogram: 1 0 0 0 0 0 0 0 0 0

Total # of neighbors = 68
Ave neighs/atom = 1.2592593
Neighbor list builds = 273
Dangerous builds = 0

write_data data.${outfile} nocoeff nofix
write_data data.1708799635 nocoeff nofix
System init for write_data ...
Generated 0 of 0 mixed pair_coeff terms from geometric mixing rule
Total wall time: 0:00:00
