LAMMPS (21 Nov 2023)
OMP_NUM_THREADS environment is not set. Defaulting to 1 thread. (src/comm.cpp:98)
  using 1 OpenMP thread(s) per MPI task
###variable outfile string L15.17
###variable L equal 15.17

units lj

newton off
atom_style      sphere
boundary        p p p
comm_modify     mode single vel yes


region      boxid block 0.0     $L      0.0       $L      0.0       $L
region      boxid block 0.0     6.5634      0.0       $L      0.0       $L
region      boxid block 0.0     6.5634      0.0       6.5634      0.0       $L
region      boxid block 0.0     6.5634      0.0       6.5634      0.0       6.5634
#create_box  1 boxid
include create_box.in
create_box 1 boxid
Created orthogonal box = (0 0 0) to (6.5634 6.5634 6.5634)
  1 by 1 by 1 MPI processor grid


######
include create_np.in
create_atoms 1 random 54 3937 boxid
Created 54 atoms
  using lattice units in orthogonal box = (0 0 0) to (6.5634 6.5634 6.5634)
  create_atoms CPU = 0.000 seconds
velocity    all create 1.0 87287 dist gaussian

#####
include particles.in
set type 1 diameter 1.0
Setting atom values ...
  54 settings made for diameter
set type 1 mass 26.0
Setting atom values ...
  54 settings made for mass

###
fix 1 all langevin 1.0 1.0 0.1 12345
fix 2 all nve/sphere

###
pair_style lj/cut 1.
include pots_lj_lan.in
pair_coeff 1 1 10.0 1.0 1.122462048309373
pair_modify shift yes



minimize          1.0e-4 1.0e-6 1000 1000
Generated 0 of 0 mixed pair_coeff terms from geometric mixing rule
Neighbor list info ...
  update: every = 1 steps, delay = 0 steps, check = yes
  max neighbors/atom: 2000, page size: 100000
  master list distance cutoff = 1.422462
  ghost atom cutoff = 1.422462
  binsize = 0.71123102, bins = 10 10 10
  1 neighbor lists, perpetual/occasional/extra = 1 0 0
  (1) pair lj/cut, perpetual
      attributes: half, newton off
      pair build: half/bin/newtoff
      stencil: full/bin/3d
      bin: standard
Per MPI rank memory allocation (min/avg/max) = 5.445 | 5.445 | 5.445 Mbytes
   Step          Temp          E_pair         E_mol          TotEng         Press     
         0   49.656342      567691.85      0              567764.95      434032.57    
        20   49.656342      1.165948e-12   0              73.105171      9.3081633    
Loop time of 0.000343901 on 1 procs for 20 steps with 54 atoms

228.0% CPU use with 1 MPI tasks x 1 OpenMP threads

Minimization stats:
  Stopping criterion = quadratic factors are zero
  Energy initial, next-to-last, final = 
      567691.847943499 1.16594799658708e-12 1.16594799658708e-12
  Force two-norm initial, final = 1.582342e+09 0.00037936747
  Force max component initial, final = 1.0719825e+09 0.00017460493
  Final line search alpha, max atom move = 1 0.00017460493
  Iterations, force evaluations = 20 65

MPI task timing breakdown:
Section |  min time  |  avg time  |  max time  |%varavg| %total
---------------------------------------------------------------
Pair    | 5.7864e-05 | 5.7864e-05 | 5.7864e-05 |   0.0 | 16.83
Neigh   | 0.00012205 | 0.00012205 | 0.00012205 |   0.0 | 35.49
Comm    | 9.0091e-05 | 9.0091e-05 | 9.0091e-05 |   0.0 | 26.20
Output  | 0          | 0          | 0          |   0.0 |  0.00
Modify  | 0          | 0          | 0          |   0.0 |  0.00
Other   |            | 7.39e-05   |            |       | 21.49

Nlocal:             54 ave          54 max          54 min
Histogram: 1 0 0 0 0 0 0 0 0 0
Nghost:            107 ave         107 max         107 min
Histogram: 1 0 0 0 0 0 0 0 0 0
Neighs:             93 ave          93 max          93 min
Histogram: 1 0 0 0 0 0 0 0 0 0

Total # of neighbors = 93
Ave neighs/atom = 1.7222222
Neighbor list builds = 6
Dangerous builds = 0

thermo_style custom step temp ke pe etotal
thermo 500
timestep 0.001
#dump    id all custom 5000 out_lan_${outfile}.lammpstrj id type radius mass xu yu zu vx vy vz fx fy fz
dump    id all custom 5000 out_lan_${outfile}.lammpstrj id type radius mass x y z
dump    id all custom 5000 out_lan_1708718555.lammpstrj id type radius mass x y z
run 100000
Generated 0 of 0 mixed pair_coeff terms from geometric mixing rule
Per MPI rank memory allocation (min/avg/max) = 4.32 | 4.32 | 4.32 Mbytes
   Step          Temp          KinEng         PotEng         TotEng    
        20   49.656342      73.105171      1.165948e-12   73.105171    
       500   0.92051614     1.3552043      0.10320355     1.4584079    
      1000   1.0973635      1.6155629      0.11021078     1.7257737    
      1500   1.1232765      1.6537127      0.11580303     1.7695157    
      2000   1.1923022      1.7553337      0.1147559      1.8700896    
      2500   1.1623026      1.7111677      0.030199194    1.7413669    
      3000   0.91284066     1.3439043      0.061888052    1.4057924    
      3500   1.1353671      1.6715126      0.072160048    1.7436727    
      4000   1.1624628      1.7114036      0.030685546    1.7420891    
      4500   1.1012238      1.6212461      0.026405116    1.6476512    
      5000   1.0813725      1.5920206      0.026547062    1.6185677    
      5500   0.96616351     1.4224074      0.042609526    1.4650169    
      6000   1.0096993      1.4865018      0.057279857    1.5437817    
      6500   1.0449015      1.5383271      0.061376061    1.5997032    
      7000   1.1762762      1.7317399      0.087228269    1.8189682    
      7500   0.98648498     1.4523251      0.088160176    1.5404853    
      8000   1.1422206      1.6816026      0.077594231    1.7591969    
      8500   1.0097385      1.4865595      0.058029098    1.5445886    
      9000   1.016125       1.4959619      0.035293982    1.5312558    
      9500   1.0079409      1.483913       0.037407992    1.521321     
     10000   1.1921624      1.7551279      0.053148332    1.8082763    
     10500   1.0856724      1.598351       0.078740986    1.677092     
     11000   0.89705806     1.3206688      0.040455373    1.3611242    
     11500   0.91893668     1.352879       0.03600968     1.3888887    
     12000   1.0809303      1.5913697      0.039777286    1.631147     
     12500   1.1932807      1.7567743      0.10471186     1.8614862    
     13000   0.95802069     1.4104193      0.13663422     1.5470536    
     13500   0.93090604     1.3705006      0.025025253    1.3955258    
     14000   0.98269288     1.4467423      0.083012198    1.5297545    
     14500   1.0228449      1.505855       0.11915892     1.6250139    
     15000   1.0814101      1.592076       0.0094814403   1.6015574    
     15500   0.94361954     1.3892177      0.024459687    1.4136773    
     16000   0.97550607     1.4361617      0.087818293    1.52398      
     16500   0.76206696     1.1219319      0.052056762    1.1739887    
     17000   1.1689551      1.7209617      0.072202606    1.7931643    
     17500   0.88342533     1.3005984      0.030238187    1.3308366    
     18000   0.92153798     1.3567087      0.073345325    1.430054     
     18500   0.96341251     1.4183573      0.030953491    1.4493108    
     19000   1.0969466      1.6149491      0.081018945    1.6959681    
     19500   1.0523413      1.5492802      0.021814722    1.5710949    
     20000   0.90198588     1.3279237      0.062997974    1.3909216    
     20500   0.9272859      1.3651709      0.058462473    1.4236334    
     21000   1.0550696      1.553297       0.050998774    1.6042958    
     21500   1.0548176      1.5529259      0.030951943    1.5838778    
     22000   1.1194968      1.6481481      0.015918818    1.6640669    
     22500   1.0068459      1.4823009      0.027377099    1.509678     
     23000   0.92502806     1.3618469      0.081246758    1.4430936    
     23500   1.0678866      1.5721663      0.032063593    1.6042299    
     24000   0.91808273     1.3516218      0.015236431    1.3668582    
     24500   1.0918995      1.6075187      0              1.6075187    
     25000   0.92897969     1.3676645      0.030583854    1.3982484    
     25500   0.82475595     1.214224       0.0095535903   1.2237776    
     26000   0.95422018     1.4048242      0.022855405    1.4276796    
     26500   1.0350717      1.5238555      0.044891454    1.568747     
     27000   1.0866485      1.5997881      0.014985433    1.6147735    
     27500   1.0374066      1.527293       0.01609013     1.5433831    
     28000   1.1469156      1.6885146      0.085348737    1.7738633    
     28500   1.1179665      1.6458952      0.0096925967   1.6555878    
     29000   1.017619       1.4981613      0.024502213    1.5226635    
     29500   0.95381519     1.4042279      0.015428893    1.4196568    
     30000   1.0635479      1.5657788      0.05931597     1.6250948    
     30500   1.212677       1.78533        0.017650877    1.8029808    
     31000   1.0881883      1.602055       0.030515059    1.63257      
     31500   0.9569013      1.4087714      0.0047274872   1.4134989    
     32000   1.0047028      1.4791458      0.048628381    1.5277742    
     32500   0.96521454     1.4210103      0.032629603    1.4536399    
     33000   1.1876048      1.7484182      0.022469664    1.7708879    
     33500   1.0480665      1.5429868      0.0049891047   1.5479759    
     34000   0.93892527     1.3823067      0.009822346    1.392129     
     34500   1.0677271      1.5719316      0.028370742    1.6003024    
     35000   0.90821021     1.3370873      0.025971977    1.3630592    
     35500   0.99379391     1.4630855      0              1.4630855    
     36000   1.0949258      1.611974       0.016935649    1.6289097    
     36500   1.0006074      1.4731165      0.029369494    1.502486     
     37000   1.1469071      1.6885022      0.0092422911   1.6977444    
     37500   0.83376217     1.2274832      0.030080221    1.2575634    
     38000   1.042934       1.5354306      0.023051499    1.5584821    
     38500   1.0794058      1.5891252      0.10720736     1.6963326    
     39000   1.3218599      1.9460715      0.016129505    1.962201     
     39500   1.0539396      1.5516334      0.0014750248   1.5531084    
     40000   1.1529468      1.6973939      0.021344097    1.718738     
     40500   1.1033243      1.6243385      0.01254266     1.6368811    
     41000   0.96446167     1.4199019      0.16143107     1.581333     
     41500   1.0072789      1.4829383      0.061923109    1.5448614    
     42000   0.82804442     1.2190654      0.09100057     1.310066     
     42500   0.9971689      1.4680542      0.085492928    1.5535471    
     43000   0.91721138     1.350339       0.043951238    1.3942902    
     43500   0.90385904     1.3306814      0.031924051    1.3626054    
     44000   1.0925885      1.608533       0.088103184    1.6966362    
     44500   0.87359924     1.2861322      0.030873293    1.3170055    
     45000   1.0025911      1.476037       0.059914377    1.5359513    
     45500   1.0961685      1.6138036      0.091640456    1.7054441    
     46000   0.87530429     1.2886424      0.064606853    1.3532493    
     46500   1.0803801      1.5905596      0.049226112    1.6397857    
     47000   0.97730461     1.4388096      0.052070674    1.4908802    
     47500   0.98235086     1.4462388      0.12623471     1.5724735    
     48000   1.094391       1.6111868      0.070146341    1.6813331    
     48500   0.97710075     1.4385094      0.063562302    1.5020717    
     49000   1.1365067      1.6731904      0.022760299    1.6959507    
     49500   0.93516003     1.3767634      0.028291527    1.4050549    
     50000   0.9912069      1.4592768      0.061047622    1.5203244    
     50500   0.90800668     1.3367876      0.066952293    1.4037399    
     51000   1.0667743      1.5705288      0.098532715    1.6690615    
     51500   1.0452657      1.5388634      0.01401206     1.5528754    
     52000   1.1413096      1.6802613      0.049480956    1.7297423    
     52500   0.99055168     1.4583122      0.023246296    1.4815585    
     53000   0.95007586     1.3987228      0.045455227    1.444178     
     53500   0.8342365      1.2281815      0.0052583587   1.2334399    
     54000   0.94278344     1.3879867      0.009447578    1.3974343    
     54500   1.1941101      1.7579955      0.0092807826   1.7672763    
     55000   0.94552525     1.3920233      0.033656871    1.4256802    
     55500   0.93999217     1.3838774      0.031724948    1.4156023    
     56000   0.89504213     1.3177009      0.013127747    1.3308287    
     56500   0.8200948      1.2073618      0.020188893    1.2275507    
     57000   0.97087306     1.4293409      0.033535042    1.4628759    
     57500   1.1487978      1.6912856      0.047294288    1.7385799    
     58000   0.93063266     1.3700981      0.097601776    1.4676999    
     58500   1.1425928      1.6821505      0.12678829     1.8089388    
     59000   1.1294029      1.6627321      0.084953731    1.7476858    
     59500   1.1285866      1.6615303      0.037709468    1.6992398    
     60000   1.0063555      1.481579       0.05714976     1.5387288    
     60500   0.89709914     1.3207293      0.02470683     1.3454361    
     61000   0.98296393     1.4471413      0.06956123     1.5167026    
     61500   0.96734086     1.4241407      0.01469527     1.438836     
     62000   1.0016782      1.474693       0.034881837    1.5095748    
     62500   1.0638981      1.5662944      0.062132281    1.6284267    
     63000   1.0434774      1.5362306      0.042666336    1.5788969    
     63500   1.0413353      1.533077       0.027086576    1.5601636    
     64000   1.0545078      1.5524698      0.027778536    1.5802484    
     64500   0.94425724     1.3901565      0.077468884    1.4676254    
     65000   1.0558688      1.5544735      0.00034172677  1.5548152    
     65500   0.9319011      1.3719655      0.066584498    1.43855      
     66000   1.081082       1.591593       0.010089284    1.6016822    
     66500   0.99741941     1.468423       0.0013951835   1.4698182    
     67000   1.09167        1.6071808      0.037447708    1.6446285    
     67500   1.0119595      1.4898292      0.0037204179   1.4935496    
     68000   1.1956786      1.7603046      0.0013734184   1.7616781    
     68500   0.93115898     1.3708729      0.021087838    1.3919608    
     69000   0.84506273     1.2441201      0.024006986    1.2681271    
     69500   0.90522982     1.3326995      0.0065593417   1.3392588    
     70000   1.1826721      1.7411561      0.053028529    1.7941846    
     70500   1.060604       1.5614448      0.029852185    1.591297     
     71000   1.0493709      1.5449071      0.010472154    1.5553793    
     71500   1.1022702      1.6227867      0.065044854    1.6878316    
     72000   0.79701443     1.1733824      0.023187834    1.1965702    
     72500   1.1053095      1.6272612      0.0743101      1.7015713    
     73000   1.0260804      1.5106184      0.054620097    1.5652385    
     73500   1.1468969      1.688487       0.0017478319   1.6902349    
     74000   1.071344       1.5772565      0.097693038    1.6749496    
     74500   1.0703221      1.575752       0.018415762    1.5941678    
     75000   1.0418503      1.5338351      0.0022053956   1.5360405    
     75500   1.1033696      1.6244052      0.026748661    1.6511539    
     76000   1.2130869      1.7859335      0.00031942809  1.7862529    
     76500   0.90316835     1.3296645      0.029773575    1.3594381    
     77000   0.99306269     1.462009       0.019063868    1.4810728    
     77500   1.0959947      1.6135478      0.01246379     1.6260116    
     78000   1.0824103      1.5935485      0.014447164    1.6079957    
     78500   1.01953        1.5009747      0.017111274    1.518086     
     79000   1.0491919      1.5446436      0.0046901635   1.5493338    
     79500   0.88392715     1.3013372      0.051498971    1.3528362    
     80000   1.2581532      1.8522811      0.083751709    1.9360328    
     80500   0.97538237     1.4359796      0.016973657    1.4529533    
     81000   0.8895292      1.3095847      0.057514134    1.3670988    
     81500   1.3747629      2.0239564      0.0016665742   2.025623     
     82000   0.81057046     1.1933398      0.10310344     1.2964433    
     82500   1.1492318      1.6919246      0.037342103    1.7292667    
     83000   1.0322665      1.5197257      0.029793064    1.5495188    
     83500   1.0506334      1.5467659      0.095551151    1.642317     
     84000   0.95569972     1.4070024      0.059001854    1.4660042    
     84500   0.91918456     1.3532439      0.004260759    1.3575047    
     85000   0.90086564     1.3262744      0.0047093338   1.3309838    
     85500   0.97490089     1.4352708      0.017282661    1.4525534    
     86000   1.1051264      1.6269917      0.043283108    1.6702748    
     86500   0.90303442     1.3294673      0.02894193     1.3584093    
     87000   1.0626886      1.5645137      0.016933073    1.5814468    
     87500   1.1419221      1.6811632      0.0431998      1.724363     
     88000   1.034098       1.5224221      0.14018506     1.6626071    
     88500   1.2063316      1.7759882      0.055131279    1.8311194    
     89000   1.0196392      1.5011354      0.048458381    1.5495938    
     89500   0.92708368     1.3648732      0.034330515    1.3992037    
     90000   0.80668619     1.1876213      0.013425946    1.2010473    
     90500   1.0108211      1.4881533      0.020090609    1.5082439    
     91000   1.1007476      1.6205451      0.021567781    1.6421129    
     91500   1.0298653      1.5161906      0.022572205    1.5387628    
     92000   1.0424968      1.534787       0.023088575    1.5578756    
     92500   0.9642347      1.4195678      0.0072068687   1.4267746    
     93000   0.78184034     1.1510427      0.12489962     1.2759423    
     93500   1.027156       1.5122019      0.02592241     1.5381243    
     94000   1.0965813      1.6144114      0.043815099    1.6582265    
     94500   1.0199719      1.5016253      0.093856306    1.5954816    
     95000   0.96941032     1.4271874      0.04444277     1.4716302    
     95500   1.0968551      1.6148145      0.087812384    1.7026269    
     96000   1.1311019      1.6652334      0.008119292    1.6733527    
     96500   0.9195513      1.3537839      0.031374181    1.385158     
     97000   0.93657602     1.378848       0.0039844252   1.3828324    
     97500   1.1372361      1.6742643      0.15481999     1.8290843    
     98000   0.98171908     1.4453086      0.048369303    1.4936779    
     98500   0.94901004     1.3971537      0.0070486261   1.4042023    
     99000   0.93893368     1.382319       0.050015965    1.432335     
     99500   1.0177442      1.4983456      0.090867789    1.5892134    
    100000   1.0822486      1.5933104      0.064785876    1.6580963    
    100020   1.1002367      1.6197929      0.05214288     1.6719358    
Loop time of 0.428368 on 1 procs for 100000 steps with 54 atoms

Performance: 20169587.291 tau/day, 233444.297 timesteps/s, 12.606 Matom-step/s
155.3% CPU use with 1 MPI tasks x 1 OpenMP threads

MPI task timing breakdown:
Section |  min time  |  avg time  |  max time  |%varavg| %total
---------------------------------------------------------------
Pair    | 0.028848   | 0.028848   | 0.028848   |   0.0 |  6.73
Neigh   | 0.0045431  | 0.0045431  | 0.0045431  |   0.0 |  1.06
Comm    | 0.081385   | 0.081385   | 0.081385   |   0.0 | 19.00
Output  | 0.0032662  | 0.0032662  | 0.0032662  |   0.0 |  0.76
Modify  | 0.28894    | 0.28894    | 0.28894    |   0.0 | 67.45
Other   |            | 0.02139    |            |       |  4.99

Nlocal:             54 ave          54 max          54 min
Histogram: 1 0 0 0 0 0 0 0 0 0
Nghost:             99 ave          99 max          99 min
Histogram: 1 0 0 0 0 0 0 0 0 0
Neighs:             71 ave          71 max          71 min
Histogram: 1 0 0 0 0 0 0 0 0 0

Total # of neighbors = 71
Ave neighs/atom = 1.3148148
Neighbor list builds = 270
Dangerous builds = 0

write_data data.${outfile} nocoeff nofix
write_data data.1708718555 nocoeff nofix
System init for write_data ...
Generated 0 of 0 mixed pair_coeff terms from geometric mixing rule
Total wall time: 0:00:00
