LAMMPS (21 Nov 2023)
OMP_NUM_THREADS environment is not set. Defaulting to 1 thread. (src/comm.cpp:98)
  using 1 OpenMP thread(s) per MPI task
###variable outfile string L15.17
###variable L equal 15.17

units lj

newton off
atom_style      sphere
boundary        p p p
comm_modify     mode single vel yes


region      boxid block 0.0     $L      0.0       $L      0.0       $L
region      boxid block 0.0     6.563429036687327      0.0       $L      0.0       $L
region      boxid block 0.0     6.563429036687327      0.0       6.563429036687327      0.0       $L
region      boxid block 0.0     6.563429036687327      0.0       6.563429036687327      0.0       6.563429036687327
#create_box  1 boxid
include create_box.in
create_box 1 boxid
Created orthogonal box = (0 0 0) to (6.563429 6.563429 6.563429)
  1 by 1 by 1 MPI processor grid


######
include create_np.in
create_atoms 1 random 108 1429 boxid
Created 108 atoms
  using lattice units in orthogonal box = (0 0 0) to (6.563429 6.563429 6.563429)
  create_atoms CPU = 0.000 seconds
velocity    all create 1.0 87287 dist gaussian

#####
include particles.in
set type 1 diameter 1.0
Setting atom values ...
  108 settings made for diameter
set type 1 mass 26.0
Setting atom values ...
  108 settings made for mass

###
fix 1 all langevin 1.0 1.0 0.1 12345
fix 2 all nve/sphere

###
pair_style lj/cut 1.
include pots_lj_lan.in
pair_coeff 1 1 10.0 1.0 1.122462048309373
pair_modify shift yes



minimize          1.0e-4 1.0e-6 1000 1000
Generated 0 of 0 mixed pair_coeff terms from geometric mixing rule
Neighbor list info ...
  update: every = 1 steps, delay = 0 steps, check = yes
  max neighbors/atom: 2000, page size: 100000
  master list distance cutoff = 1.422462
  ghost atom cutoff = 1.422462
  binsize = 0.71123102, bins = 10 10 10
  1 neighbor lists, perpetual/occasional/extra = 1 0 0
  (1) pair lj/cut, perpetual
      attributes: half, newton off
      pair build: half/bin/newtoff
      stencil: full/bin/3d
      bin: standard
Per MPI rank memory allocation (min/avg/max) = 5.447 | 5.447 | 5.447 Mbytes
   Step          Temp          E_pair         E_mol          TotEng         Press     
         0   49.656342      9223670.9      0              9223744.7      14096279     
        29   49.656342      5.6227679e-07  0              73.794843      18.792268    
Loop time of 0.00104311 on 1 procs for 29 steps with 108 atoms

319.6% CPU use with 1 MPI tasks x 1 OpenMP threads

Minimization stats:
  Stopping criterion = quadratic factors are zero
  Energy initial, next-to-last, final = 
      9223670.90075908 5.62276790362483e-07 5.62276790362483e-07
  Force two-norm initial, final = 4.6623174e+10 0.3627595
  Force max component initial, final = 2.9311499e+10 0.18719429
  Final line search alpha, max atom move = 0.016312688 0.0030536421
  Iterations, force evaluations = 29 88

MPI task timing breakdown:
Section |  min time  |  avg time  |  max time  |%varavg| %total
---------------------------------------------------------------
Pair    | 0.00023815 | 0.00023815 | 0.00023815 |   0.0 | 22.83
Neigh   | 0.0003628  | 0.0003628  | 0.0003628  |   0.0 | 34.78
Comm    | 0.00023655 | 0.00023655 | 0.00023655 |   0.0 | 22.68
Output  | 0          | 0          | 0          |   0.0 |  0.00
Modify  | 0          | 0          | 0          |   0.0 |  0.00
Other   |            | 0.0002056  |            |       | 19.71

Nlocal:            108 ave         108 max         108 min
Histogram: 1 0 0 0 0 0 0 0 0 0
Nghost:            219 ave         219 max         219 min
Histogram: 1 0 0 0 0 0 0 0 0 0
Neighs:            321 ave         321 max         321 min
Histogram: 1 0 0 0 0 0 0 0 0 0

Total # of neighbors = 321
Ave neighs/atom = 2.9722222
Neighbor list builds = 7
Dangerous builds = 1

thermo_style custom step temp ke pe etotal
thermo 500
timestep 0.001
#dump    id all custom 5000 out_lan_${outfile}.lammpstrj id type radius mass xu yu zu vx vy vz fx fy fz
dump    id all custom 5000 out_lan_${outfile}.lammpstrj id type radius mass x y z
dump    id all custom 5000 out_lan_1708803791.lammpstrj id type radius mass x y z
run 100000
Generated 0 of 0 mixed pair_coeff terms from geometric mixing rule
Per MPI rank memory allocation (min/avg/max) = 4.322 | 4.322 | 4.322 Mbytes
   Step          Temp          KinEng         PotEng         TotEng    
        29   49.656342      73.794842      5.6227679e-07  73.794843    
       500   1.0855479      1.6132448      0.27433204     1.8875769    
      1000   1.14063        1.695103       0.20436421     1.8994672    
      1500   0.92115142     1.3689334      0.16503796     1.5339713    
      2000   0.93178411     1.3847347      0.15631479     1.5410495    
      2500   1.0886517      1.6178573      0.18310493     1.8009623    
      3000   0.82896097     1.2319281      0.12387598     1.3558041    
      3500   0.99781256     1.4828603      0.11871368     1.601574     
      4000   0.99104253     1.4727993      0.10011275     1.5729121    
      4500   0.97599944     1.4504436      0.11799403     1.5684376    
      5000   1.0092575      1.4998688      0.12621122     1.62608      
      5500   1.0644149      1.5818388      0.12148154     1.7033203    
      6000   1.0165054      1.51064        0.14574374     1.6563838    
      6500   0.97679646     1.4516281      0.24560606     1.6972341    
      7000   1.1206522      1.6654137      0.085394237    1.750808     
      7500   0.92893853     1.3805059      0.15166158     1.5321674    
      8000   1.0203513      1.5163554      0.18427591     1.7006313    
      8500   1.051973       1.5633488      0.098158765    1.6615076    
      9000   0.98198347     1.4593365      0.15263475     1.6119713    
      9500   0.96872027     1.439626       0.14050484     1.5801308    
     10000   1.0031863      1.4908464      0.14791049     1.6387569    
     10500   0.96639048     1.4361636      0.13794288     1.5741065    
     11000   0.98988195     1.4710746      0.10313192     1.5742065    
     11500   0.88809749     1.3198115      0.10962511     1.4294367    
     12000   0.9778515      1.453196       0.11826739     1.5714634    
     12500   0.91411309     1.3584736      0.064613792    1.4230874    
     13000   1.0143599      1.5074515      0.13744474     1.6448963    
     13500   1.1181213      1.6616524      0.13961682     1.8012693    
     14000   1.0196932      1.5153774      0.17706809     1.6924455    
     14500   0.95434935     1.4182692      0.087601845    1.505871     
     15000   1.0284353      1.5283692      0.16711087     1.69548      
     15500   0.96333244     1.431619       0.090565132    1.5221842    
     16000   1.0326123      1.5345766      0.10102934     1.6356059    
     16500   1.0490612      1.5590215      0.075983517    1.635005     
     17000   1.0202965      1.516274       0.10157272     1.6178467    
     17500   0.89094706     1.3240463      0.13015854     1.4542049    
     18000   1.0479304      1.557341       0.12239046     1.6797315    
     18500   1.0182837      1.5132827      0.13300391     1.6462866    
     19000   0.96623733     1.435936       0.13988876     1.5758248    
     19500   1.0647556      1.5823452      0.14185302     1.7241982    
     20000   1.0180777      1.5129767      0.057717844    1.5706945    
     20500   1.0808765      1.6063026      0.13714652     1.7434491    
     21000   1.0202027      1.5161346      0.089798221    1.6059328    
     21500   0.92258434     1.3710628      0.091883988    1.4629468    
     22000   0.95858989     1.4245711      0.11392499     1.5384961    
     22500   0.94134398     1.3989418      0.09548309     1.4944248    
     23000   1.1387755      1.6923469      0.085055894    1.7774028    
     23500   0.99210933     1.4743847      0.15503071     1.6294154    
     24000   0.95833497     1.4241923      0.16432551     1.5885178    
     24500   0.98165365     1.4588464      0.078496001    1.5373424    
     25000   0.97144834     1.4436802      0.14935657     1.5930367    
     25500   0.95485334     1.4190182      0.07063673     1.4896549    
     26000   0.91528413     1.3602139      0.13849055     1.4987045    
     26500   1.0371846      1.5413716      0.11995618     1.6613278    
     27000   0.99641057     1.4807768      0.079674943    1.5604518    
     27500   0.98086088     1.4576683      0.13106032     1.5887286    
     28000   1.0077135      1.4975743      0.082328265    1.5799025    
     28500   1.02814        1.5279303      0.080327329    1.6082577    
     29000   1.0357783      1.5392817      0.15818162     1.6974633    
     29500   1.0903976      1.620452       0.17607507     1.7965271    
     30000   1.0898746      1.6196748      0.12025359     1.7399284    
     30500   1.0078443      1.4977686      0.15203167     1.6498002    
     31000   1.1025489      1.6385102      0.10638271     1.7448929    
     31500   0.94379258     1.4025806      0.11804227     1.5206229    
     32000   1.0193898      1.5149265      0.20216642     1.7170929    
     32500   0.96399121     1.4325981      0.091976545    1.5245746    
     33000   1.0521665      1.5636364      0.20988193     1.7735183    
     33500   1.0066         1.4959194      0.13212765     1.6280471    
     34000   0.97341567     1.4466038      0.068101528    1.5147054    
     34500   1.1721866      1.7419995      0.082839162    1.8248387    
     35000   0.99701475     1.4816747      0.10824643     1.5899211    
     35500   1.0066753      1.4960314      0.10072691     1.5967583    
     36000   0.93488064     1.3893365      0.11754658     1.5068831    
     36500   1.0035055      1.4913207      0.081275815    1.5725965    
     37000   1.0477441      1.5570642      0.11212925     1.6691935    
     37500   0.93340221     1.3871394      0.076098674    1.4632381    
     38000   1.0152588      1.5087875      0.067419456    1.5762069    
     38500   1.0273324      1.5267301      0.088528497    1.6152586    
     39000   1.0659957      1.5841881      0.067750983    1.651939     
     39500   1.0721293      1.5933032      0.056346888    1.6496501    
     40000   1.078004       1.6020338      0.15514983     1.7571836    
     40500   0.94852202     1.4096091      0.095929845    1.505539     
     41000   1.0310645      1.5322764      0.10885538     1.6411318    
     41500   0.96503318     1.4341465      0.13175663     1.5659032    
     42000   1.126942       1.674761       0.099072048    1.773833     
     42500   0.9840125      1.4623519      0.08171246     1.5440644    
     43000   0.91205182     1.3554103      0.047985299    1.4033956    
     43500   1.0261981      1.5250444      0.067183035    1.5922274    
     44000   1.0816883      1.6075089      0.045314481    1.6528234    
     44500   0.99205985     1.4743112      0.09568142     1.5699926    
     45000   1.0439444      1.5514173      0.077445685    1.628863     
     45500   0.98700579     1.4668003      0.11706822     1.5838685    
     46000   0.93151043     1.384328       0.065302907    1.4496309    
     46500   1.034765       1.5377757      0.14407371     1.6818494    
     47000   1.0536387      1.5658242      0.04643311     1.6122573    
     47500   1.0002914      1.4865442      0.05744656     1.5439907    
     48000   0.91948616     1.3664586      0.1975207      1.5639793    
     48500   1.0362887      1.5400402      0.10899674     1.6490369    
     49000   1.0299381      1.5306024      0.065177809    1.5957802    
     49500   0.94990891     1.4116702      0.079254581    1.4909248    
     50000   0.96164445     1.4291105      0.080851673    1.5099622    
     50500   0.95180894     1.4144938      0.074916925    1.4894108    
     51000   0.90099149     1.3389735      0.053877226    1.3928507    
     51500   1.1319507      1.6822045      0.14444522     1.8266497    
     52000   0.93667615     1.3920048      0.10762283     1.4996277    
     52500   0.96782975     1.4383025      0.060025897    1.4983284    
     53000   0.90169091     1.3400129      0.16729907     1.507312     
     53500   1.0165339      1.5106823      0.071858802    1.5825411    
     54000   1.0501147      1.5605871      0.078185086    1.6387722    
     54500   1.0344748      1.5373446      0.098140463    1.635485     
     55000   0.95099568     1.4132853      0.057334702    1.47062      
     55500   0.91790867     1.3641143      0.066696091    1.4308104    
     56000   0.93937642     1.3960177      0.11042446     1.5064422    
     56500   0.91627932     1.3616929      0.11731768     1.4790105    
     57000   0.98529483     1.4642576      0.088687715    1.5529453    
     57500   1.0840026      1.6109482      0.11109323     1.7220415    
     58000   1.0005891      1.4869866      0.12749258     1.6144792    
     58500   1.0535933      1.5657567      0.07625713     1.6420139    
     59000   0.99984397     1.4858792      0.077640498    1.5635197    
     59500   0.96383852     1.4323711      0.10287081     1.535242     
     60000   0.87900736     1.3063026      0.091854349    1.398157     
     60500   0.83493398     1.2408047      0.081077867    1.3218825    
     61000   1.0071236      1.4966976      0.044153617    1.5408513    
     61500   0.95193472     1.4146808      0.093605568    1.5082863    
     62000   1.0506754      1.5614204      0.099318379    1.6607387    
     62500   0.93870645     1.3950221      0.10715197     1.5021741    
     63000   1.1179584      1.6614104      0.067439192    1.7288495    
     63500   1.1351395      1.6869434      0.12517156     1.812115     
     64000   1.1122637      1.6529475      0.14220327     1.7951507    
     64500   0.9203824      1.3677905      0.08313354     1.4509241    
     65000   0.92467999     1.3741772      0.079020367    1.4531976    
     65500   1.1266615      1.6743441      0.065115836    1.7394599    
     66000   1.0498471      1.5601894      0.076938258    1.6371277    
     66500   1.0637016      1.5807788      0.071544203    1.652323     
     67000   1.0082751      1.4984088      0.1361727      1.6345815    
     67500   1.0644563      1.5819003      0.073906082    1.6558063    
     68000   0.96669004     1.4366088      0.07205417     1.508663     
     68500   0.95634955     1.4212417      0.22815984     1.6494015    
     69000   0.89952527     1.3367945      0.11865478     1.4554493    
     69500   1.0499246      1.5603046      0.099462115    1.6597667    
     70000   1.2578035      1.8692357      0.081559378    1.9507951    
     70500   0.93383429     1.3877815      0.091848971    1.4796305    
     71000   1.0050546      1.4936228      0.10755822     1.601181     
     71500   1.0446532      1.5524707      0.078222006    1.6306927    
     72000   0.99014771     1.4714695      0.057681743    1.5291513    
     72500   1.0120425      1.5040076      0.049139799    1.5531474    
     73000   0.9546285      1.418684       0.14014018     1.5588242    
     73500   0.9506828      1.4128203      0.17743886     1.5902591    
     74000   0.99700123     1.4816546      0.080499939    1.5621545    
     74500   0.89093674     1.324031       0.078883917    1.4029149    
     75000   0.87420299     1.2991628      0.073998117    1.3731609    
     75500   0.95792405     1.4235816      0.091081593    1.5146632    
     76000   1.0035751      1.4914241      0.17596723     1.6673913    
     76500   1.1314689      1.6814884      0.19765649     1.8791449    
     77000   1.138378       1.6917562      0.12062251     1.8123787    
     77500   0.91345405     1.3574942      0.070856908    1.4283511    
     78000   0.97981449     1.4561132      0.13242292     1.5885361    
     78500   1.2144212      1.8047649      0.041362241    1.8461271    
     79000   0.87632438     1.3023154      0.12220454     1.4245199    
     79500   1.1417604      1.6967829      0.16849051     1.8652734    
     80000   0.91106327     1.3539412      0.066704759    1.420646     
     80500   0.90916814     1.3511249      0.10215742     1.4532823    
     81000   1.074671       1.5970805      0.098490223    1.6955707    
     81500   1.0566651      1.5703217      0.053902221    1.6242239    
     82000   0.98634957     1.4658251      0.12046217     1.5862872    
     82500   0.95076472     1.412942       0.059082379    1.4720244    
     83000   0.94310111     1.401553       0.094152792    1.4957058    
     83500   1.0114908      1.5031878      0.11912077     1.6223085    
     84000   1.0153658      1.5089464      0.088295712    1.5972421    
     84500   1.0545993      1.5672517      0.096824418    1.6640761    
     85000   1.0078952      1.4978443      0.14394179     1.6417861    
     85500   0.94742927     1.4079852      0.11361061     1.5215958    
     86000   1.061609       1.5776689      0.10047998     1.6781489    
     86500   1.0000931      1.4862494      0.14183685     1.6280863    
     87000   1.0173952      1.5119623      0.054214893    1.5661772    
     87500   1.1212654      1.6663249      0.12947244     1.7957974    
     88000   1.0448469      1.5527585      0.11581209     1.6685706    
     88500   1.0404856      1.5462772      0.082141362    1.6284186    
     89000   0.92128386     1.3691302      0.077820686    1.4469509    
     89500   1.0164539      1.5105635      0.0951084      1.6056719    
     90000   1.0138669      1.5067189      0.061963232    1.5686821    
     90500   0.87024929     1.2932871      0.1076213      1.4009084    
     91000   0.98190511     1.4592201      0.067672208    1.5268923    
     91500   0.95172923     1.4143754      0.12270313     1.5370785    
     92000   1.0100099      1.500987       0.11314105     1.614128     
     92500   1.0100233      1.5010068      0.055800452    1.5568072    
     93000   0.92454943     1.3739832      0.09572008     1.4697033    
     93500   1.0232855      1.5207159      0.061462154    1.5821781    
     94000   0.97402244     1.4475056      0.11968224     1.5671878    
     94500   1.0282435      1.5280841      0.11950865     1.6475928    
     95000   0.95996116     1.4266089      0.1201815      1.5467905    
     95500   0.90617092     1.3466707      0.086430565    1.4331012    
     96000   1.0206151      1.5167474      0.15894311     1.6756905    
     96500   0.80438921     1.1954117      0.058390476    1.2538022    
     97000   1.0066181      1.4959463      0.10921087     1.6051572    
     97500   1.0110791      1.5025759      0.059394246    1.5619702    
     98000   0.87228902     1.2963184      0.061995374    1.3583138    
     98500   0.97940262     1.4555011      0.075182255    1.5306834    
     99000   1.1770367      1.7492073      0.10776854     1.8569758    
     99500   1.0592557      1.5741717      0.095193168    1.6693649    
    100000   0.81613346     1.212865       0.11856685     1.3314319    
    100029   0.87414911     1.2990827      0.12945754     1.4285403    
Loop time of 0.809192 on 1 procs for 100000 steps with 108 atoms

Performance: 10677321.632 tau/day, 123580.111 timesteps/s, 13.347 Matom-step/s
132.1% CPU use with 1 MPI tasks x 1 OpenMP threads

MPI task timing breakdown:
Section |  min time  |  avg time  |  max time  |%varavg| %total
---------------------------------------------------------------
Pair    | 0.087952   | 0.087952   | 0.087952   |   0.0 | 10.87
Neigh   | 0.011581   | 0.011581   | 0.011581   |   0.0 |  1.43
Comm    | 0.1435     | 0.1435     | 0.1435     |   0.0 | 17.73
Output  | 0.0040974  | 0.0040974  | 0.0040974  |   0.0 |  0.51
Modify  | 0.533      | 0.533      | 0.533      |   0.0 | 65.87
Other   |            | 0.02907    |            |       |  3.59

Nlocal:            108 ave         108 max         108 min
Histogram: 1 0 0 0 0 0 0 0 0 0
Nghost:            214 ave         214 max         214 min
Histogram: 1 0 0 0 0 0 0 0 0 0
Neighs:            277 ave         277 max         277 min
Histogram: 1 0 0 0 0 0 0 0 0 0

Total # of neighbors = 277
Ave neighs/atom = 2.5648148
Neighbor list builds = 293
Dangerous builds = 0

write_data data.${outfile} nocoeff nofix
write_data data.1708803791 nocoeff nofix
System init for write_data ...
Generated 0 of 0 mixed pair_coeff terms from geometric mixing rule
Total wall time: 0:00:00
