LAMMPS (21 Nov 2023)
OMP_NUM_THREADS environment is not set. Defaulting to 1 thread. (src/comm.cpp:98)
  using 1 OpenMP thread(s) per MPI task
###variable outfile string L15.17
###variable L equal 15.17

units lj

newton off
atom_style      sphere
boundary        p p p
comm_modify     mode single vel yes


region      boxid block 0.0     $L      0.0       $L      0.0       $L
region      boxid block 0.0     5.209397078678045      0.0       $L      0.0       $L
region      boxid block 0.0     5.209397078678045      0.0       5.209397078678045      0.0       $L
region      boxid block 0.0     5.209397078678045      0.0       5.209397078678045      0.0       5.209397078678045
#create_box  1 boxid
include create_box.in
create_box 1 boxid
Created orthogonal box = (0 0 0) to (5.2093971 5.2093971 5.2093971)
  1 by 1 by 1 MPI processor grid


######
include create_np.in
create_atoms 1 random 54 5297 boxid
Created 54 atoms
  using lattice units in orthogonal box = (0 0 0) to (5.2093971 5.2093971 5.2093971)
  create_atoms CPU = 0.000 seconds
velocity    all create 1.0 87287 dist gaussian

#####
include particles.in
set type 1 diameter 1.0
Setting atom values ...
  54 settings made for diameter
set type 1 mass 26.0
Setting atom values ...
  54 settings made for mass

###
fix 1 all langevin 1.0 1.0 0.1 12345
fix 2 all nve/sphere

###
pair_style lj/cut 1.
include pots_lj_lan.in
pair_coeff 1 1 10.0 1.0 1.122462048309373
pair_modify shift yes



minimize          1.0e-4 1.0e-6 1000 1000
Generated 0 of 0 mixed pair_coeff terms from geometric mixing rule
Neighbor list info ...
  update: every = 1 steps, delay = 0 steps, check = yes
  max neighbors/atom: 2000, page size: 100000
  master list distance cutoff = 1.422462
  ghost atom cutoff = 1.422462
  binsize = 0.71123102, bins = 8 8 8
  1 neighbor lists, perpetual/occasional/extra = 1 0 0
  (1) pair lj/cut, perpetual
      attributes: half, newton off
      pair build: half/bin/newtoff
      stencil: full/bin/3d
      bin: standard
Per MPI rank memory allocation (min/avg/max) = 5.441 | 5.441 | 5.441 Mbytes
   Step          Temp          E_pair         E_mol          TotEng         Press     
         0   49.656342      4113271.8      0              4113344.9      6286576      
        25   49.656342      4.7917489e-11  0              73.105171      18.616083    
Loop time of 0.000633868 on 1 procs for 25 steps with 54 atoms

456.2% CPU use with 1 MPI tasks x 1 OpenMP threads

Minimization stats:
  Stopping criterion = quadratic factors are zero
  Energy initial, next-to-last, final = 
      4113271.79227927 4.7917488906798e-11 4.7917488906798e-11
  Force two-norm initial, final = 1.2309496e+10 0.0024320732
  Force max component initial, final = 5.8976401e+09 0.0015107581
  Final line search alpha, max atom move = 1 0.0015107581
  Iterations, force evaluations = 25 88

MPI task timing breakdown:
Section |  min time  |  avg time  |  max time  |%varavg| %total
---------------------------------------------------------------
Pair    | 0.00012477 | 0.00012477 | 0.00012477 |   0.0 | 19.68
Neigh   | 0.0002102  | 0.0002102  | 0.0002102  |   0.0 | 33.16
Comm    | 0.00018582 | 0.00018582 | 0.00018582 |   0.0 | 29.32
Output  | 0          | 0          | 0          |   0.0 |  0.00
Modify  | 0          | 0          | 0          |   0.0 |  0.00
Other   |            | 0.0001131  |            |       | 17.84

Nlocal:             54 ave          54 max          54 min
Histogram: 1 0 0 0 0 0 0 0 0 0
Nghost:            166 ave         166 max         166 min
Histogram: 1 0 0 0 0 0 0 0 0 0
Neighs:            158 ave         158 max         158 min
Histogram: 1 0 0 0 0 0 0 0 0 0

Total # of neighbors = 158
Ave neighs/atom = 2.9259259
Neighbor list builds = 8
Dangerous builds = 0

thermo_style custom step temp ke pe etotal
thermo 500
timestep 0.001
#dump    id all custom 5000 out_lan_${outfile}.lammpstrj id type radius mass xu yu zu vx vy vz fx fy fz
dump    id all custom 5000 out_lan_${outfile}.lammpstrj id type radius mass x y z
dump    id all custom 5000 out_lan_1708800586.lammpstrj id type radius mass x y z
run 100000
Generated 0 of 0 mixed pair_coeff terms from geometric mixing rule
Per MPI rank memory allocation (min/avg/max) = 4.316 | 4.316 | 4.316 Mbytes
   Step          Temp          KinEng         PotEng         TotEng    
        25   49.656342      73.105171      4.7917489e-11  73.105171    
       500   0.99271974     1.4615041      0.51884336     1.9803474    
      1000   1.1256136      1.6571534      0.29284851     1.9500019    
      1500   1.1586449      1.7057828      0.19609602     1.9018788    
      2000   1.0970275      1.6150683      0.12728427     1.7423525    
      2500   1.1307651      1.6647376      0.21769319     1.8824308    
      3000   0.95363697     1.4039655      0.17546267     1.5794282    
      3500   1.0462815      1.5403588      0.12592902     1.6662878    
      4000   1.0320078      1.5193449      0.059142743    1.5784876    
      4500   1.094133       1.6108069      0.15068352     1.7614904    
      5000   1.0438981      1.5368499      0.26137572     1.7982257    
      5500   1.0291067      1.5150737      0.1824278      1.6975015    
      6000   0.97033596     1.4285502      0.10538788     1.533938     
      6500   1.0060629      1.4811481      0.080932261    1.5620804    
      7000   1.1076177      1.6306595      0.24808701     1.8787465    
      7500   0.99482894     1.4646093      0.18206215     1.6466714    
      8000   1.090299       1.6051624      0.20574331     1.8109057    
      8500   0.9883998      1.4551442      0.20167132     1.6568155    
      9000   0.95874781     1.4114898      0.14810955     1.5595994    
      9500   0.97880919     1.4410246      0.13097968     1.5720043    
     10000   1.1304853      1.6643255      0.24867314     1.9129987    
     10500   1.058952       1.5590126      0.16050929     1.7195219    
     11000   0.88359973     1.3008552      0.17445015     1.4753053    
     11500   0.85707757     1.2618086      0.047078797    1.3088874    
     12000   1.1099486      1.634091       0.055267758    1.6893588    
     12500   1.0574084      1.5567402      0.095457161    1.6521974    
     13000   0.99778987     1.4689684      0.097974219    1.5669426    
     13500   0.80996745     1.1924521      0.1235824      1.3160345    
     14000   0.94011807     1.3840627      0.25874689     1.6428096    
     14500   0.98707197     1.4531893      0.17458373     1.627773     
     15000   1.1649728      1.7150989      0.118735       1.8338339    
     15500   0.9310623      1.3707306      0.052930321    1.4236609    
     16000   1.0007783      1.4733681      0.15673838     1.6301065    
     16500   0.68099886     1.0025817      0.16050461     1.1630863    
     17000   1.0511595      1.5475403      0.28326553     1.8308059    
     17500   0.95642925     1.4080764      0.12583724     1.5339136    
     18000   0.98268898     1.4467366      0.27092563     1.7176622    
     18500   1.0237088      1.5071268      0.121342       1.6284688    
     19000   1.0148874      1.4941397      0.12956743     1.6237072    
     19500   1.0243916      1.5081321      0.08361194     1.5917441    
     20000   0.99059598     1.4583774      0.062009613    1.520387     
     20500   0.99522467     1.4651919      0.032463475    1.4976553    
     21000   0.92868061     1.3672242      0.24877512     1.6159994    
     21500   1.1194675      1.648105       0.20435728     1.8524623    
     22000   1.1263997      1.6583107      0.10732322     1.7656339    
     22500   0.99186577     1.4602468      0.10886116     1.569108     
     23000   0.97639604     1.4374719      0.054975586    1.4924475    
     23500   1.05029        1.5462603      0.10522506     1.6514853    
     24000   0.91467437     1.3466039      0.10323491     1.4498388    
     24500   1.0045366      1.4789011      0.11018115     1.5890822    
     25000   0.95554364     1.4067726      0.074912152    1.4816847    
     25500   0.86495266     1.2734025      0.058230415    1.3316329    
     26000   0.98345977     1.4478713      0.1038429      1.5517142    
     26500   0.98465489     1.4496308      0.051882741    1.5015135    
     27000   1.0951919      1.6123658      0.073076503    1.6854423    
     27500   1.0031814      1.4769059      0.16680164     1.6437076    
     28000   1.239389       1.8246561      0.061267791    1.8859239    
     28500   1.1580779      1.7049481      0.041351315    1.7462994    
     29000   1.0362571      1.5256008      0.047098502    1.5726993    
     29500   1.0443262      1.5374802      0.094265567    1.6317458    
     30000   1.0813386      1.5919707      0.049354285    1.641325     
     30500   1.155849       1.7016666      0.17129996     1.8729666    
     31000   1.1418073      1.6809941      0.14507915     1.8260732    
     31500   0.95467095     1.4054878      0.10678027     1.5122681    
     32000   1.0281189      1.5136195      0.11178566     1.6254052    
     32500   0.88386808     1.3012502      0.079930007    1.3811802    
     33000   1.223166       1.8007721      0.085490442    1.8862625    
     33500   1.0837951      1.5955873      0.11544594     1.7110332    
     34000   0.96704105     1.4236993      0.097782529    1.5214819    
     34500   1.0276371      1.5129102      0.14122458     1.6541348    
     35000   0.92762122     1.3656646      0.052865151    1.4185297    
     35500   0.93007593     1.3692785      0.12483064     1.4941091    
     36000   1.0943993      1.611199       0.11807899     1.729278     
     36500   0.99763611     1.4687421      0.11855623     1.5872983    
     37000   1.1142009      1.6403513      0.065372136    1.7057235    
     37500   0.849734       1.2509973      0.085381146    1.3363784    
     38000   1.0843915      1.5964652      0.073452984    1.6699182    
     38500   1.1130438      1.6386477      0.14790838     1.7865561    
     39000   1.2936739      1.9045754      0.095346055    1.9999215    
     39500   0.98436673     1.4492066      0.073878583    1.5230852    
     40000   1.0709658      1.5766997      0.086322452    1.6630221    
     40500   1.1016174      1.6218256      0.13074628     1.7525719    
     41000   1.120592       1.6497604      0.083147822    1.7329083    
     41500   0.96923319     1.4269266      0.053582033    1.4805087    
     42000   0.81264599     1.1963955      0.098242819    1.2946383    
     42500   1.1376254      1.6748374      0.08188811     1.7567255    
     43000   0.90674107     1.3349244      0.054326562    1.3892509    
     43500   0.92419368     1.3606185      0.047668496    1.408287     
     44000   1.1968396      1.7620139      0.073590284    1.8356042    
     44500   0.86884308     1.2791301      0.09802855     1.3771586    
     45000   1.0424869      1.5347724      0.056275668    1.5910481    
     45500   1.0525975      1.5496575      0.052115783    1.6017732    
     46000   0.87811812     1.292785       0.042421866    1.3352069    
     46500   1.1720323      1.725492       0.061430019    1.786922     
     47000   1.020999       1.5031375      0.1263395      1.629477     
     47500   1.0216927      1.5041587      0.21174509     1.7159038    
     48000   1.0408704      1.5323925      0.1002018      1.6325943    
     48500   0.97997321     1.4427383      0.093403587    1.5361419    
     49000   1.2378241      1.8223522      0.051004443    1.8733566    
     49500   0.91431675     1.3460774      0.12421446     1.4702919    
     50000   0.9937211      1.4629783      0.1158523      1.5788306    
     50500   0.88727969     1.3062729      0.082377609    1.3886505    
     51000   1.1294254      1.6627651      0.1370014      1.7997665    
     51500   0.99635517     1.4668562      0.14301434     1.6098706    
     52000   1.187215       1.7478443      0.16816931     1.9160136    
     52500   0.92250119     1.3581268      0.14440877     1.5025355    
     53000   0.98498833     1.4501217      0.047317909    1.4974396    
     53500   0.84575287     1.2451362      0.16063434     1.4057705    
     54000   0.97940672     1.4419043      0.12949576     1.5714001    
     54500   1.1799375      1.7371303      0.068277682    1.8054079    
     55000   0.91667952     1.349556       0.11138584     1.4609418    
     55500   0.96002913     1.4133762      0.058683244    1.4720595    
     56000   0.98384955     1.4484452      0.039372909    1.4878181    
     56500   0.89440531     1.3167634      0.1373606      1.454124     
     57000   0.93394588     1.3749759      0.099720788    1.4746967    
     57500   1.1073502      1.6302656      0.11703739     1.747303     
     58000   0.99383759     1.4631498      0.09068265     1.5538324    
     58500   1.1485507      1.6909219      0.089141258    1.7800632    
     59000   1.1179983      1.645942       0.068866477    1.7148085    
     59500   1.1000422      1.6195066      0.050705346    1.670212     
     60000   1.0149825      1.4942798      0.067118298    1.5613981    
     60500   0.95708849     1.4090469      0.16932565     1.5783726    
     61000   1.0099326      1.4868451      0.1670873      1.6539325    
     61500   0.90924268     1.3386073      0.085545351    1.4241526    
     62000   0.94581909     1.3924559      0.081501899    1.4739578    
     62500   1.0482797      1.5433006      0.062682547    1.6059832    
     63000   0.9695901      1.4274521      0.11283332     1.5402854    
     63500   1.0613288      1.5625118      0.11378545     1.6762973    
     64000   1.0424425      1.534707       0.20013339     1.7348404    
     64500   0.99880888     1.4704686      0.11791286     1.5883815    
     65000   1.1446922      1.6852414      0.14701676     1.8322581    
     65500   0.98860933     1.4554526      0.10750378     1.5629564    
     66000   0.98205461     1.4458026      0.20208479     1.6478874    
     66500   0.98516495     1.4503817      0.080446963    1.5308287    
     67000   1.0976048      1.6159181      0.081188074    1.6971062    
     67500   1.031039       1.5179185      0.08413103     1.6020495    
     68000   1.1434419      1.6834006      0.11863986     1.8020405    
     68500   1.0271837      1.5122427      0.093897223    1.6061399    
     69000   0.8889298      1.3087022      0.12912131     1.4378235    
     69500   0.87360054     1.2861341      0.11770859     1.4038427    
     70000   1.1334512      1.668692       0.071654288    1.7403463    
     70500   1.0065056      1.4817999      0.14934242     1.6311423    
     71000   1.0360144      1.5252434      0.16029964     1.685543     
     71500   1.1193001      1.6478585      0.19511916     1.8429777    
     72000   0.80890137     1.1908826      0.093403046    1.2842856    
     72500   1.1903461      1.752454       0.17051461     1.9229686    
     73000   0.98704273     1.4531462      0.11241055     1.5655568    
     73500   1.0894066      1.6038486      0.062795582    1.6666442    
     74000   1.1344365      1.6701426      0.10371106     1.7738537    
     74500   1.2741759      1.87587        0.055583188    1.9314532    
     75000   0.97170118     1.4305601      0.099590079    1.5301501    
     75500   1.0185787      1.4995742      0.070479098    1.5700533    
     76000   1.2790533      1.8830507      0.074976721    1.9580274    
     76500   0.94036991     1.3844335      0.11248994     1.4969234    
     77000   1.0540326      1.5517702      0.070226787    1.621997     
     77500   1.0913905      1.6067693      0.02048304     1.6272524    
     78000   1.04419        1.5372797      0.07808229     1.615362     
     78500   0.97572666     1.4364865      0.12682612     1.5633126    
     79000   1.1027837      1.6235427      0.1873608      1.8109035    
     79500   0.82964798     1.2214262      0.21199118     1.4334174    
     80000   1.2034926      1.7718085      0.096948043    1.8687566    
     80500   0.9846453      1.4496167      0.24139915     1.6910158    
     81000   0.77162973     1.1360104      0.14613727     1.2821477    
     81500   1.1885134      1.7497559      0.14252679     1.8922827    
     82000   0.86188865     1.2688916      0.10573554     1.3746272    
     82500   1.1811557      1.7389237      0.098072483    1.8369962    
     83000   1.0176438      1.4981978      0.074881152    1.573079     
     83500   1.0741397      1.5813723      0.11934062     1.7007129    
     84000   0.98722364     1.4534126      0.098221498    1.5516341    
     84500   0.97471334     1.4349946      0.13928865     1.5742833    
     85000   0.99589554     1.4661796      0.053910944    1.5200905    
     85500   0.96915464     1.426811       0.014709742    1.4415207    
     86000   1.0710392      1.5768077      0.058092455    1.6349002    
     86500   0.75710865     1.1146322      0.066254619    1.1808868    
     87000   1.104694       1.626355       0.061883642    1.6882386    
     87500   1.1300023      1.6636146      0.17332832     1.8369429    
     88000   1.161215       1.7095665      0.075338353    1.7849049    
     88500   1.1497178      1.6926401      0.17835643     1.8709965    
     89000   0.97162655     1.4304502      0.10816115     1.5386114    
     89500   0.98652335     1.4523816      0.069915247    1.5222968    
     90000   0.7585703      1.1167841      0.085612196    1.2023962    
     90500   0.94941673     1.3977524      0.088489996    1.4862424    
     91000   0.96669014     1.4231827      0.10371293     1.5268956    
     91500   0.99666483     1.4673121      0.13695832     1.6042704    
     92000   0.99390604     1.4632506      0.085872593    1.5491232    
     92500   0.91808411     1.3516238      0.14886701     1.5004908    
     93000   0.89101318     1.3117694      0.08287189     1.3946413    
     93500   1.037427       1.5273231      0.12153452     1.6488576    
     94000   1.0385097      1.5289171      0.13541154     1.6643287    
     94500   0.93356815     1.3744198      0.16395062     1.5383704    
     95000   1.0152027      1.4946039      0.093734032    1.5883379    
     95500   1.1821892      1.7404453      0.036131134    1.7765764    
     96000   1.0285911      1.5143146      0.1230219      1.6373365    
     96500   0.94959395     1.3980133      0.086095758    1.4841091    
     97000   1.0205202      1.5024325      0.098135023    1.6005675    
     97500   0.99372505     1.4629841      0.17993123     1.6429153    
     98000   0.96187089     1.4160877      0.11841061     1.5344983    
     98500   0.85817887     1.26343        0.23097286     1.4944029    
     99000   0.91672737     1.3496264      0.082098628    1.431725     
     99500   0.95308324     1.4031503      0.058315886    1.4614662    
    100000   1.1139759      1.6400201      0.053609199    1.6936293    
    100025   1.0771454      1.5857973      0.050008363    1.6358057    
Loop time of 0.478745 on 1 procs for 100000 steps with 54 atoms

Performance: 18047176.975 tau/day, 208879.363 timesteps/s, 11.279 Matom-step/s
148.1% CPU use with 1 MPI tasks x 1 OpenMP threads

MPI task timing breakdown:
Section |  min time  |  avg time  |  max time  |%varavg| %total
---------------------------------------------------------------
Pair    | 0.052713   | 0.052713   | 0.052713   |   0.0 | 11.01
Neigh   | 0.0060963  | 0.0060963  | 0.0060963  |   0.0 |  1.27
Comm    | 0.11281    | 0.11281    | 0.11281    |   0.0 | 23.56
Output  | 0.0030523  | 0.0030523  | 0.0030523  |   0.0 |  0.64
Modify  | 0.28306    | 0.28306    | 0.28306    |   0.0 | 59.13
Other   |            | 0.02101    |            |       |  4.39

Nlocal:             54 ave          54 max          54 min
Histogram: 1 0 0 0 0 0 0 0 0 0
Nghost:            157 ave         157 max         157 min
Histogram: 1 0 0 0 0 0 0 0 0 0
Neighs:            146 ave         146 max         146 min
Histogram: 1 0 0 0 0 0 0 0 0 0

Total # of neighbors = 146
Ave neighs/atom = 2.7037037
Neighbor list builds = 265
Dangerous builds = 0

write_data data.${outfile} nocoeff nofix
write_data data.1708800586 nocoeff nofix
System init for write_data ...
Generated 0 of 0 mixed pair_coeff terms from geometric mixing rule
Total wall time: 0:00:00
