LAMMPS (21 Nov 2023)
OMP_NUM_THREADS environment is not set. Defaulting to 1 thread. (src/comm.cpp:98)
  using 1 OpenMP thread(s) per MPI task
###variable outfile string L15.17
###variable L equal 15.17

units lj

newton off
atom_style      sphere
boundary        p p p
comm_modify     mode single vel yes


region      boxid block 0.0     $L      0.0       $L      0.0       $L
region      boxid block 0.0     5.2094      0.0       $L      0.0       $L
region      boxid block 0.0     5.2094      0.0       5.2094      0.0       $L
region      boxid block 0.0     5.2094      0.0       5.2094      0.0       5.2094
#create_box  1 boxid
include create_box.in
create_box 1 boxid
Created orthogonal box = (0 0 0) to (5.2094 5.2094 5.2094)
  1 by 1 by 1 MPI processor grid


######
include create_np.in
create_atoms 1 random 54 3208 boxid
Created 54 atoms
  using lattice units in orthogonal box = (0 0 0) to (5.2094 5.2094 5.2094)
  create_atoms CPU = 0.001 seconds
velocity    all create 1.0 87287 dist gaussian

#####
include particles.in
set type 1 diameter 1.0
Setting atom values ...
  54 settings made for diameter
set type 1 mass 26.0
Setting atom values ...
  54 settings made for mass

###
fix 1 all langevin 1.0 1.0 0.1 12345
fix 2 all nve/sphere

###
pair_style lj/cut 1.
include pots_lj_lan.in
pair_coeff 1 1 10.0 1.0 1.122462048309373
pair_modify shift yes



minimize          1.0e-4 1.0e-6 1000 1000
Generated 0 of 0 mixed pair_coeff terms from geometric mixing rule
Neighbor list info ...
  update: every = 1 steps, delay = 0 steps, check = yes
  max neighbors/atom: 2000, page size: 100000
  master list distance cutoff = 1.422462
  ghost atom cutoff = 1.422462
  binsize = 0.71123102, bins = 8 8 8
  1 neighbor lists, perpetual/occasional/extra = 1 0 0
  (1) pair lj/cut, perpetual
      attributes: half, newton off
      pair build: half/bin/newtoff
      stencil: full/bin/3d
      bin: standard
Per MPI rank memory allocation (min/avg/max) = 5.441 | 5.441 | 5.441 Mbytes
   Step          Temp          E_pair         E_mol          TotEng         Press     
         0   49.656342      1258448.6      0              1258521.7      1924094.8    
        21   49.656342      0.00019155908  0              73.105362      18.627953    
Loop time of 0.000543688 on 1 procs for 21 steps with 54 atoms

457.2% CPU use with 1 MPI tasks x 1 OpenMP threads

Minimization stats:
  Stopping criterion = quadratic factors are zero
  Energy initial, next-to-last, final = 
      1258448.61568428  0.000191559083413  0.000191559083413
  Force two-norm initial, final = 3.2561054e+09 5.0366152
  Force max component initial, final = 1.934873e+09 3.0176485
  Final line search alpha, max atom move = 0.0042992843 0.012973729
  Iterations, force evaluations = 21 56

MPI task timing breakdown:
Section |  min time  |  avg time  |  max time  |%varavg| %total
---------------------------------------------------------------
Pair    | 9.0839e-05 | 9.0839e-05 | 9.0839e-05 |   0.0 | 16.71
Neigh   | 0.00018564 | 0.00018564 | 0.00018564 |   0.0 | 34.14
Comm    | 0.00012873 | 0.00012873 | 0.00012873 |   0.0 | 23.68
Output  | 0          | 0          | 0          |   0.0 |  0.00
Modify  | 0          | 0          | 0          |   0.0 |  0.00
Other   |            | 0.0001385  |            |       | 25.47

Nlocal:             54 ave          54 max          54 min
Histogram: 1 0 0 0 0 0 0 0 0 0
Nghost:            151 ave         151 max         151 min
Histogram: 1 0 0 0 0 0 0 0 0 0
Neighs:            152 ave         152 max         152 min
Histogram: 1 0 0 0 0 0 0 0 0 0

Total # of neighbors = 152
Ave neighs/atom = 2.8148148
Neighbor list builds = 6
Dangerous builds = 0

thermo_style custom step temp ke pe etotal
thermo 500
timestep 0.001
#dump    id all custom 5000 out_lan_${outfile}.lammpstrj id type radius mass xu yu zu vx vy vz fx fy fz
dump    id all custom 5000 out_lan_${outfile}.lammpstrj id type radius mass x y z
dump    id all custom 5000 out_lan_1708715875.lammpstrj id type radius mass x y z
run 100000
Generated 0 of 0 mixed pair_coeff terms from geometric mixing rule
Per MPI rank memory allocation (min/avg/max) = 4.316 | 4.316 | 4.316 Mbytes
   Step          Temp          KinEng         PotEng         TotEng    
        21   49.656342      73.105171      0.00019155908  73.105362    
       500   0.91326373     1.3445272      0.17212509     1.5166522    
      1000   1.1036938      1.6248825      0.064858632    1.6897412    
      1500   1.1728521      1.726699       0.1861327      1.9128317    
      2000   1.1873721      1.7480756      0.11952611     1.8676017    
      2500   1.2004889      1.7673864      0.075526282    1.8429127    
      3000   0.97691712     1.4382391      0.018484767    1.4567239    
      3500   1.1233512      1.6538227      0.15069148     1.8045141    
      4000   1.0471388      1.541621       0.14202629     1.6836473    
      4500   1.0939497      1.6105371      0.048111772    1.6586489    
      5000   1.0175169      1.498011       0.15152219     1.6495332    
      5500   1.0065428      1.4818547      0.12099306     1.6028477    
      6000   0.99010439     1.4576537      0.092196096    1.5498498    
      6500   0.99477522     1.4645302      0.15431846     1.6188486    
      7000   1.1209866      1.6503413      0.12285449     1.7731958    
      7500   0.91985672     1.3542335      0.16677316     1.5210067    
      8000   1.1351738      1.6712281      0.065828953    1.7370571    
      8500   0.94256716     1.3876683      0.097068604    1.4847369    
      9000   0.97916483     1.4415482      0.13559565     1.5771439    
      9500   1.0443622      1.5375332      0.11592457     1.6534578    
     10000   1.2070986      1.7771173      0.058874655    1.835992     
     10500   1.0694972      1.5745376      0.071040716    1.6455783    
     11000   0.9104073      1.3403219      0.13536116     1.475683     
     11500   0.9217376      1.3570026      0.025215263    1.3822178    
     12000   1.0610442      1.5620928      0.19064137     1.7527342    
     12500   1.172422       1.7260658      0.18343147     1.9094972    
     13000   0.93467728     1.3760527      0.16809324     1.5441459    
     13500   0.98234802     1.4462346      0.11786486     1.5640995    
     14000   0.98811906     1.4547308      0.064140843    1.5188717    
     14500   1.0448966      1.53832        0.15926439     1.6975844    
     15000   1.1389766      1.6768267      0.07787733     1.754704     
     15500   0.96264756     1.4172311      0.1169547      1.5341858    
     16000   1.0222393      1.5049634      0.18225873     1.6872221    
     16500   0.75675438     1.1141106      0.06263263     1.1767432    
     17000   1.1824262      1.7407942      0.08964436     1.8304386    
     17500   0.97120948     1.4298362      0.11243449     1.5422707    
     18000   0.95706229     1.4090084      0.18435972     1.5933681    
     18500   0.94417436     1.3900345      0.1318326      1.5218671    
     19000   1.0048637      1.4793826      0.14724514     1.6266277    
     19500   1.0773953      1.5861654      0.039967543    1.6261329    
     20000   0.92784894     1.3659998      0.088140886    1.4541407    
     20500   0.97157234     1.4303704      0.13045209     1.5608225    
     21000   1.062898       1.5648221      0.071660486    1.6364826    
     21500   1.0631052      1.5651271      0.07088404     1.6360111    
     22000   1.1220825      1.6519549      0.10937946     1.7613343    
     22500   0.96105675     1.4148891      0.13729644     1.5521855    
     23000   1.016765       1.496904       0.067301289    1.5642053    
     23500   1.0660661      1.5694862      0.17631144     1.7457977    
     24000   0.91833874     1.3519987      0.20024175     1.5522404    
     24500   1.1048459      1.6265786      0.16411931     1.7906979    
     25000   0.96355591     1.4185684      0.097057947    1.5156264    
     25500   0.83612287     1.2309587      0.094730311    1.325689     
     26000   0.97044936     1.4287171      0.04520014     1.4739173    
     26500   1.0232272      1.5064178      0.18054811     1.6869659    
     27000   1.0324199      1.5199516      0.18621703     1.7061686    
     27500   1.0247872      1.5087145      0.16368923     1.6724037    
     28000   1.1660861      1.7167378      0.14542438     1.8621622    
     28500   1.1227886      1.6529943      0.11869792     1.7716922    
     29000   1.0181988      1.4990149      0.09376303     1.5927779    
     29500   0.97016871     1.4283039      0.119186       1.5474899    
     30000   1.1023922      1.6229662      0.093662072    1.7166283    
     30500   1.2057028      1.7750624      0.075072707    1.8501351    
     31000   1.058603       1.5584989      0.16262737     1.7211263    
     31500   0.95751648     1.409677       0.053813268    1.4634903    
     32000   0.97120126     1.4298241      0.12752313     1.5573472    
     32500   0.98043592     1.4434196      0.070131085    1.5135506    
     33000   1.1722702      1.7258422      0.090719842    1.8165621    
     33500   1.0369963      1.526689       0.12689688     1.6535859    
     34000   0.89449486     1.3168952      0.12528784     1.4421831    
     34500   0.96879162     1.4262766      0.16817658     1.5944531    
     35000   0.96579499     1.4218648      0.17132331     1.5931882    
     35500   0.97535056     1.4359328      0.093113701    1.5290465    
     36000   1.0836574      1.5953845      0.14272107     1.7381056    
     36500   1.0155121      1.4950594      0.098683236    1.5937427    
     37000   1.1784929      1.7350035      0.056747978    1.7917515    
     37500   0.84748479     1.2476859      0.1733151      1.421001     
     38000   1.0085209      1.484767       0.16709288     1.6518598    
     38500   1.1360964      1.6725863      0.08152971     1.754116     
     39000   1.3016193      1.9162729      0.090556089    2.006829     
     39500   1.0343968      1.522862       0.060084054    1.582946     
     40000   1.1400673      1.6784324      0.11827885     1.7967112    
     40500   1.1243906      1.6553529      0.054013362    1.7093663    
     41000   1.0840749      1.5959992      0.21137422     1.8073734    
     41500   0.93758603     1.380335       0.18242842     1.5627634    
     42000   0.85682332     1.2614343      0.12213442     1.3835688    
     42500   1.0836288      1.5953424      0.17500943     1.7703519    
     43000   0.90705088     1.3353805      0.14978143     1.4851619    
     43500   0.95993043     1.4132309      0.10702199     1.5202529    
     44000   1.164091       1.7138007      0.15897249     1.8727732    
     44500   0.85239525     1.2549152      0.063759692    1.3186749    
     45000   1.0698741      1.5750924      0.12361897     1.6987114    
     45500   1.0814132      1.5920805      0.19747351     1.789554     
     46000   0.89895953     1.3234682      0.10393154     1.4273997    
     46500   1.1391856      1.6771344      0.16294152     1.8400759    
     47000   1.0799904      1.5899858      0.12122914     1.711215     
     47500   1.0600717      1.5606611      0.083972292    1.6446334    
     48000   1.0594892      1.5598035      0.14821304     1.7080165    
     48500   0.97111323     1.4296945      0.075967624    1.5056621    
     49000   1.1851003      1.744731       0.17608548     1.9208165    
     49500   0.91563587     1.3480195      0.11235209     1.4603716    
     50000   1.0367667      1.526351       0.17814693     1.7044979    
     50500   0.88043199     1.2961915      0.11525024     1.4114418    
     51000   1.0745466      1.5819713      0.21450883     1.7964802    
     51500   1.030579       1.5172414      0.089740716    1.6069821    
     52000   1.1632541      1.7125686      0.12146013     1.8340287    
     52500   0.99028319     1.4579169      0.069495083    1.527412     
     53000   0.91631164     1.3490144      0.14487466     1.493889     
     53500   0.85220448     1.2546344      0.095081313    1.3497157    
     54000   0.93021971     1.3694901      0.14658084     1.516071     
     54500   1.1960638      1.7608717      0.16286275     1.9237344    
     55000   0.89555806     1.3184605      0.13197985     1.4504403    
     55500   0.94089859     1.3852118      0.091154023    1.4763658    
     56000   0.88832401     1.3078104      0.10994962     1.41776      
     56500   0.82206297     1.2102594      0.19382643     1.4040858    
     57000   1.0019898      1.4751517      0.039945111    1.5150968    
     57500   1.0955073      1.6128301      0.066516608    1.6793468    
     58000   0.95266912     1.4025406      0.21188657     1.6144272    
     58500   1.1720732      1.7255522      0.085084249    1.8106365    
     59000   1.1260594      1.6578097      0.12806794     1.7858776    
     59500   1.1125576      1.6379321      0.085103201    1.7230353    
     60000   0.98624207     1.4519675      0.01410863     1.4660761    
     60500   0.90540988     1.3329646      0.027641372    1.3606059    
     61000   1.0446617      1.5379742      0.095186897    1.6331611    
     61500   0.93703285     1.3795206      0.054309154    1.4338297    
     62000   0.98053016     1.4435583      0.081491186    1.5250495    
     62500   1.0539994      1.5517213      0.093988159    1.6457094    
     63000   1.0667065      1.570429       0.14161429     1.7120433    
     63500   1.0593246      1.5595612      0.035832507    1.5953937    
     64000   1.0626965      1.5645253      0.090296944    1.6548223    
     64500   0.95823072     1.4107286      0.11085394     1.5215825    
     65000   1.0126931      1.4909093      0.12240226     1.6133116    
     65500   0.97343961     1.4331194      0.084489177    1.5176086    
     66000   1.1031273      1.6240486      0.074532384    1.6985809    
     66500   1.0216859      1.5041487      0.15800663     1.6621553    
     67000   1.1144422      1.6407065      0.088376356    1.7290829    
     67500   0.98154084     1.4450462      0.084947213    1.5299934    
     68000   1.2343609      1.8172535      0.045250297    1.8625038    
     68500   0.93238374     1.3726761      0.026454955    1.399131     
     69000   0.77577889     1.1421189      0.1426467      1.2847656    
     69500   0.83029257     1.2223752      0.073150348    1.2955255    
     70000   1.1442589      1.6846033      0.070004838    1.7546082    
     70500   1.0070674      1.482627       0.12008999     1.602717     
     71000   0.98533421     1.4506309      0.15849483     1.6091258    
     71500   1.0958925      1.6133973      0.097539554    1.7109368    
     72000   0.78410308     1.154374       0.094456949    1.2488309    
     72500   1.0726848      1.5792303      0.048572655    1.627803     
     73000   0.98530639     1.45059        0.16630693     1.6168969    
     73500   1.1507525      1.6941634      0.098870593    1.793034     
     74000   1.1007921      1.6206106      0.18408325     1.8046939    
     74500   1.1869928      1.7475171      0.10849349     1.8560106    
     75000   1.0243618      1.5080882      0.084587167    1.5926754    
     75500   1.0435108      1.5362798      0.16249998     1.6987797    
     76000   1.2058473      1.7752752      0.085306278    1.8605815    
     76500   0.88241876     1.2991165      0.097737091    1.3968536    
     77000   1.0460224      1.5399775      0.17490037     1.7148778    
     77500   1.0750737      1.5827474      0.056562019    1.6393094    
     78000   1.038252       1.5285376      0.12035614     1.6488938    
     78500   0.97564076     1.43636        0.11937393     1.5557339    
     79000   1.1249935      1.6562404      0.18941928     1.8456597    
     79500   0.93234157     1.372614       0.068522578    1.4411366    
     80000   1.1756854      1.7308702      0.22476184     1.9556321    
     80500   1.0510101      1.5473204      0.090016283    1.6373367    
     81000   0.82889954     1.2203243      0.073302284    1.2936266    
     81500   1.3244152      1.9498335      0.15254937     2.1023828    
     82000   0.85694457     1.2616128      0.16371647     1.4253293    
     82500   1.1358832      1.6722724      0.14574237     1.8180148    
     83000   1.1228396      1.6530694      0.12225483     1.7753242    
     83500   1.0429264      1.5354195      0.14662386     1.6820433    
     84000   0.89323226     1.3150364      0.17487968     1.4899161    
     84500   0.99232658     1.4609252      0.028154047    1.4890793    
     85000   0.93580571     1.377714       0.052975753    1.4306897    
     85500   0.97932606     1.4417856      0.085434886    1.5272205    
     86000   1.116367       1.6435403      0.12835303     1.7718933    
     86500   0.84052883     1.2374452      0.0078580515   1.2453033    
     87000   1.0546354      1.5526576      0.073866499    1.6265241    
     87500   1.1193228      1.6478919      0.16000988     1.8079018    
     88000   1.1088752      1.6325107      0.080016199    1.7125269    
     88500   1.2532968      1.8451314      0.082281991    1.9274134    
     89000   1.0241938      1.5078408      0.12661705     1.6344579    
     89500   0.92186729     1.3571935      0.11370847     1.470902     
     90000   0.76990934     1.1334776      0.16748216     1.3009598    
     90500   0.95466109     1.4054733      0.13951282     1.5449861    
     91000   1.0796145      1.5894324      0.12962952     1.7190619    
     91500   1.0496166      1.5452689      0.066008544    1.6112774    
     92000   1.1124915      1.6378347      0.085911378    1.7237461    
     92500   0.98172931     1.4453237      0.10007835     1.545402     
     93000   0.78510494     1.1558489      0.11972643     1.2755754    
     93500   1.0425159      1.534815       0.075986444    1.6108015    
     94000   1.1031582      1.624094       0.14609595     1.7701899    
     94500   0.95335131     1.403545       0.16997757     1.5735226    
     95000   1.0019109      1.4750356      0.096906994    1.5719426    
     95500   1.0717281      1.5778219      0.17061061     1.7484325    
     96000   1.1231823      1.6535739      0.17599873     1.8295726    
     96500   0.84527708     1.2444357      0.18489896     1.4293347    
     97000   0.92040203     1.3550363      0.10886455     1.4639009    
     97500   1.1214601      1.6510384      0.18860512     1.8396435    
     98000   0.95710327     1.4090687      0.07766277     1.4867315    
     98500   0.92450114     1.3610711      0.12376593     1.4848371    
     99000   0.97818342     1.4401034      0.089313219    1.5294166    
     99500   1.015778       1.495451       0.052763908    1.5482149    
    100000   1.0602577      1.5609349      0.087783073    1.648718     
    100021   1.0327833      1.5204865      0.094425726    1.6149122    
Loop time of 0.634726 on 1 procs for 100000 steps with 54 atoms

Performance: 13612179.974 tau/day, 157548.379 timesteps/s, 8.508 Matom-step/s
134.7% CPU use with 1 MPI tasks x 1 OpenMP threads

MPI task timing breakdown:
Section |  min time  |  avg time  |  max time  |%varavg| %total
---------------------------------------------------------------
Pair    | 0.068862   | 0.068862   | 0.068862   |   0.0 | 10.85
Neigh   | 0.0083875  | 0.0083875  | 0.0083875  |   0.0 |  1.32
Comm    | 0.15054    | 0.15054    | 0.15054    |   0.0 | 23.72
Output  | 0.0090818  | 0.0090818  | 0.0090818  |   0.0 |  1.43
Modify  | 0.36888    | 0.36888    | 0.36888    |   0.0 | 58.12
Other   |            | 0.02898    |            |       |  4.56

Nlocal:             54 ave          54 max          54 min
Histogram: 1 0 0 0 0 0 0 0 0 0
Nghost:            152 ave         152 max         152 min
Histogram: 1 0 0 0 0 0 0 0 0 0
Neighs:            155 ave         155 max         155 min
Histogram: 1 0 0 0 0 0 0 0 0 0

Total # of neighbors = 155
Ave neighs/atom = 2.8703704
Neighbor list builds = 263
Dangerous builds = 0

write_data data.${outfile} nocoeff nofix
write_data data.1708715875 nocoeff nofix
System init for write_data ...
Generated 0 of 0 mixed pair_coeff terms from geometric mixing rule
Total wall time: 0:00:00
