LAMMPS (3 Mar 2020)
###variable outfile string L15.17
###variable L equal 15.17

units lj

newton off
atom_style      sphere
boundary        p p p
comm_modify     mode single vel yes


region      boxid block 0.0     $L      0.0       $L      0.0       $L
region      boxid block 0.0     9.56      0.0       $L      0.0       $L
region      boxid block 0.0     9.56      0.0       9.56      0.0       $L
region      boxid block 0.0     9.56      0.0       9.56      0.0       9.56
#create_box  1 boxid
include create_box.in
create_box 1 boxid
Created orthogonal box = (0 0 0) to (9.56 9.56 9.56)
  1 by 1 by 1 MPI processor grid


######
include create_np.in
create_atoms 1 random 500 8897 boxid
Created 500 atoms
  create_atoms CPU = 0.000895499 secs
velocity    all create 1.0 87287 dist gaussian

#####
include particles.in
set type 1 diameter 1.0
  500 settings made for diameter
set type 1 mass 26.0
  500 settings made for mass

###
fix 1 all langevin 1.0 1.0 0.1 12345
fix 2 all nve/sphere

###
pair_style lj/cut 1.
include pots_lj_lan.in
pair_coeff 1 1 10.0 1.0 1.122462048309373
pair_modify shift yes



minimize          1.0e-4 1.0e-6 1000 1000
WARNING: Using 'neigh_modify every 1 delay 0 check yes' setting during minimization (src/min.cpp:190)
Neighbor list info ...
  update every 1 steps, delay 0 steps, check yes
  max neighbors/atom: 2000, page size: 100000
  master list distance cutoff = 1.42246
  ghost atom cutoff = 1.42246
  binsize = 0.711231, bins = 14 14 14
  1 neighbor lists, perpetual/occasional/extra = 1 0 0
  (1) pair lj/cut, perpetual
      attributes: half, newton off
      pair build: half/bin/newtoff
      stencil: half/bin/3d/newtoff
      bin: standard
Per MPI rank memory allocation (min/avg/max) = 5.494 | 5.494 | 5.494 Mbytes
Step Temp E_pair E_mol TotEng Press 
       0    49.656342 1.4939399e+09            0  1.49394e+09 3.4197289e+09 
      64    49.656342 1.0233539e-10            0    74.335544    28.359701 
Loop time of 0.02963 on 1 procs for 64 steps with 500 atoms

100.0% CPU use with 1 MPI tasks x no OpenMP threads

Minimization stats:
  Stopping criterion = linesearch alpha is zero
  Energy initial, next-to-last, final = 
          1493939937.1  1.02335388164e-10  1.02335388164e-10
  Force two-norm initial, final = 8.94751e+13 0.0108158
  Force max component initial, final = 4.08258e+13 0.0061678
  Final line search alpha, max atom move = 0.0625 0.000385488
  Iterations, force evaluations = 64 253

MPI task timing breakdown:
Section |  min time  |  avg time  |  max time  |%varavg| %total
---------------------------------------------------------------
Pair    | 0.0081014  | 0.0081014  | 0.0081014  |   0.0 | 27.34
Neigh   | 0.012599   | 0.012599   | 0.012599   |   0.0 | 42.52
Comm    | 0.0042272  | 0.0042272  | 0.0042272  |   0.0 | 14.27
Output  | 0          | 0          | 0          |   0.0 |  0.00
Modify  | 0          | 0          | 0          |   0.0 |  0.00
Other   |            | 0.004702   |            |       | 15.87

Nlocal:    500 ave 500 max 500 min
Histogram: 1 0 0 0 0 0 0 0 0 0
Nghost:    592 ave 592 max 592 min
Histogram: 1 0 0 0 0 0 0 0 0 0
Neighs:    2062 ave 2062 max 2062 min
Histogram: 1 0 0 0 0 0 0 0 0 0

Total # of neighbors = 2062
Ave neighs/atom = 4.124
Neighbor list builds = 17
Dangerous builds = 1

thermo_style custom step temp ke pe etotal
thermo 500
timestep 0.001
#dump    id all custom 5000 out_lan_${outfile}.lammpstrj id type radius mass xu yu zu vx vy vz fx fy fz
dump    id all custom 5000 out_lan_${outfile}.lammpstrj id type radius mass x y z
dump    id all custom 5000 out_lan_1675782587.lammpstrj id type radius mass x y z
run 100000
Per MPI rank memory allocation (min/avg/max) = 4.369 | 4.369 | 4.369 Mbytes
Step Temp KinEng PotEng TotEng 
      64    49.656342    74.335544 1.0233539e-10    74.335544 
     500     1.192185    1.7847009   0.73085119    2.5155521 
    1000    1.0179111     1.523813   0.48766289    2.0114759 
    1500    1.0193422    1.5259553   0.39185449    1.9178098 
    2000   0.99698522    1.4924869   0.38367449    1.8761614 
    2500   0.94732522    1.4181459   0.41689211     1.835038 
    3000    1.0682577    1.5991817   0.36510847    1.9642902 
    3500    1.0505519    1.5726762   0.35951458    1.9321908 
    4000   0.99944978    1.4961763   0.37604052    1.8722168 
    4500    1.0289599     1.540353   0.30249278    1.8428457 
    5000   0.99770029    1.4935573   0.31751484    1.8110722 
    5500    1.0253343    1.5349254   0.33140305    1.8663284 
    6000     1.038396    1.5544789   0.31603426    1.8705131 
    6500     1.008762    1.5101168   0.31484479    1.8249615 
    7000   0.98885492    1.4803158   0.32020895    1.8005248 
    7500   0.93792235    1.4040698   0.28482894    1.6888987 
    8000    1.0580971    1.5839714    0.2990831    1.8830545 
    8500    1.0150839    1.5195806   0.30480759    1.8243882 
    9000    1.0265971    1.5368158    0.3045258    1.8413416 
    9500   0.98580165    1.4757451   0.27653158    1.7522767 
   10000    1.0163585    1.5214887   0.24385973    1.7653485 
   10500    1.0376654     1.553385   0.28659342    1.8399785 
   11000   0.97542141    1.4602058   0.31651424    1.7767201 
   11500   0.99987379    1.4968111   0.28686073    1.7836718 
   12000    1.0507509    1.5729741   0.30477329    1.8777474 
   12500   0.98602832    1.4760844   0.26308818    1.7391726 
   13000   0.93949058    1.4064174   0.30594279    1.7123602 
   13500   0.99016254    1.4822733   0.28005584    1.7623292 
   14000    1.0452343    1.5647157   0.25356376    1.8182795 
   14500   0.98763549    1.4784903   0.21640249    1.6948928 
   15000    1.0123509    1.5154892    0.3129321    1.8284213 
   15500    1.0875088    1.6280007   0.29003423    1.9180349 
   16000    1.0667302    1.5968951   0.26879132    1.8656865 
   16500   0.98093759    1.4684636   0.24735942     1.715823 
   17000    1.0040423    1.5030513   0.28207379    1.7851251 
   17500   0.99690741    1.4923704   0.26188266    1.7542531 
   18000     1.075479     1.609992     0.252046     1.862038 
   18500   0.94751879    1.4184356   0.22586609    1.6443017 
   19000   0.99244576    1.4856913   0.32166928    1.8073606 
   19500    1.0812299    1.6186012   0.29055402    1.9091552 
   20000   0.98745686    1.4782229   0.24839759    1.7266205 
   20500   0.92914026     1.390923   0.25349391    1.6444169 
   21000    1.0110215    1.5134991   0.26849015    1.7819893 
   21500   0.92221892    1.3805617   0.25924459    1.6398063 
   22000    1.0335149    1.5471718   0.28146578    1.8286375 
   22500    1.0659098     1.595667   0.27427566    1.8699426 
   23000     1.021357    1.5289714   0.32344252    1.8524139 
   23500   0.97364493    1.4575465   0.29950221    1.7570487 
   24000    1.0300927    1.5420488   0.29043024     1.832479 
   24500   0.97210491     1.455241   0.26616308    1.7214041 
   25000    0.9791132    1.4657325   0.26529426    1.7310267 
   25500    1.0130465    1.5165306   0.27484205    1.7913727 
   26000   0.99664402    1.4919761   0.28988025    1.7818563 
   26500    0.9871978    1.4778351   0.30241228    1.7802474 
   27000    1.0085839    1.5098502   0.27826433    1.7881145 
   27500   0.94545036    1.4153392     0.278664    1.6940032 
   28000   0.99927195    1.4959101   0.29622179    1.7921319 
   28500   0.95637993    1.4317008   0.24834707    1.6800478 
   29000   0.97815901     1.464304   0.28081604    1.7451201 
   29500   0.97154525    1.4544032    0.2487446    1.7031478 
   30000   0.94173771    1.4097813   0.27966305    1.6894444 
   30500   0.97365791    1.4575659   0.25916367    1.7167296 
   31000    1.0195963    1.5263357   0.29015361    1.8164893 
   31500    1.0494444    1.5710182   0.26295624    1.8339745 
   32000    1.0098491    1.5117441   0.28294173    1.7946858 
   32500    1.0114254    1.5141039   0.27777399    1.7918779 
   33000    1.0303599    1.5424487   0.27304446    1.8154932 
   33500    0.9848195    1.4742748   0.27475951    1.7490343 
   34000    0.9754327    1.4602227   0.29223957    1.7524623 
   34500    1.0070625    1.5075726   0.34507275    1.8526454 
   35000    1.0206949    1.5279803   0.27603046    1.8040107 
   35500    1.0116969    1.5145103   0.27722872     1.791739 
   36000    1.0669378    1.5972059   0.23976293    1.8369689 
   36500    0.9479449    1.4190735   0.26104019    1.6801137 
   37000     1.033723    1.5474834   0.25712406    1.8046074 
   37500    1.0141815    1.5182297   0.30840697    1.8266366 
   38000   0.98884485    1.4803007   0.24330752    1.7236083 
   38500    1.0119916    1.5149515   0.23953202    1.7544835 
   39000    1.0467534    1.5669898   0.27149925     1.838489 
   39500    1.0144939    1.5186974   0.26263036    1.7813277 
   40000    1.0652756    1.5947176    0.2988288    1.8935464 
   40500   0.99727203    1.4929162   0.23245299    1.7253692 
   41000   0.97449934    1.4588255   0.24066448      1.69949 
   41500    1.0239637    1.5328737   0.28000702    1.8128807 
   42000    1.0647499    1.5939305   0.26020429    1.8541348 
   42500   0.93731998     1.403168   0.24740191    1.6505699 
   43000    1.0048296    1.5042299   0.26023335    1.7644633 
   43500    1.0082123    1.5092938   0.23117339    1.7404672 
   44000   0.93870517    1.4052416   0.31965433     1.724896 
   44500    1.0627474    1.5909329   0.27602662    1.8669595 
   45000   0.93680315    1.4023943   0.25720966     1.659604 
   45500    1.0461467    1.5660816   0.29528205    1.8613637 
   46000    0.9792202    1.4658926   0.33063452    1.7965272 
   46500   0.97386381    1.4578741   0.29814889     1.756023 
   47000    1.0001187    1.4971776   0.32305725    1.8202349 
   47500   0.97455364    1.4589068   0.20692814    1.6658349 
   48000    1.0407896    1.5580621   0.23586345    1.7939255 
   48500    1.0266604    1.5369106   0.26019959    1.7971102 
   49000    0.9638176    1.4428349   0.28199708     1.724832 
   49500    1.0121832    1.5152383   0.30103785    1.8162762 
   50000    1.0221519    1.5301614   0.25608019    1.7862416 
   50500    1.0144483    1.5186291   0.24986723    1.7684963 
   51000    1.0398696    1.5566848   0.26064825     1.817333 
   51500   0.96340945    1.4422239   0.30431583    1.7465398 
   52000    1.0230312    1.5314777   0.25777028     1.789248 
   52500   0.96119153    1.4389037   0.25238989    1.6912936 
   53000    0.9514722    1.4243539    0.2857705    1.7101244 
   53500   0.98350911    1.4723131   0.24562406    1.7179372 
   54000    1.0455526    1.5651922   0.26610199    1.8312942 
   54500    1.0178921    1.5237845   0.27874419    1.8025287 
   55000   0.98431456    1.4735189   0.27358429    1.7471032 
   55500   0.98119604    1.4688505   0.25047185    1.7193223 
   56000    1.0684079    1.5994066   0.28513293    1.8845395 
   56500    0.9807258    1.4681465   0.30924692    1.7773934 
   57000    1.0158449    1.5207198   0.26962202    1.7903418 
   57500    1.0017279    1.4995867   0.28839995    1.7879866 
   58000    1.0463507    1.5663871   0.27513747    1.8415245 
   58500   0.93614025    1.4014019   0.22442709     1.625829 
   59000   0.94690092    1.4175107   0.23355012    1.6510608 
   59500     1.049498    1.5710986    0.2565692    1.8276678 
   60000   0.98683303     1.477289   0.24295827    1.7202473 
   60500    1.0181503     1.524171   0.24086637    1.7650374 
   61000   0.98375132    1.4726757   0.27458139    1.7472571 
   61500   0.99688385    1.4923351   0.28203429    1.7743694 
   62000   0.96728664    1.4480281   0.22440566    1.6724338 
   62500    1.0365897    1.5517747   0.29945404    1.8512288 
   63000    1.0252016    1.5347268   0.24254827     1.777275 
   63500    1.0058381    1.5057397   0.28675418    1.7924938 
   64000   0.99441159    1.4886342   0.29800551    1.7866397 
   64500    1.0214516    1.5291131   0.31381251    1.8429256 
   65000    1.0776809    1.6132883    0.3028034    1.9160917 
   65500    1.0726048    1.6056894   0.29149815    1.8971875 
   66000    1.0570703    1.5824343   0.25122021    1.8336545 
   66500   0.99566553    1.4905113   0.25344201    1.7439533 
   67000    1.0146276    1.5188975   0.24901486    1.7679124 
   67500    1.0266642    1.5369163   0.26915747    1.8060737 
   68000    1.0272046    1.5377252   0.26520952    1.8029348 
   68500   0.98182956    1.4697989   0.26991234    1.7397112 
   69000    1.0303894    1.5424929   0.30069716      1.84319 
   69500   0.99506823    1.4896171   0.33526049    1.8248776 
   70000   0.99041237    1.4826473   0.30144676    1.7840941 
   70500   0.99480036    1.4892161   0.29820856    1.7874247 
   71000    1.0142026    1.5182613   0.29486928    1.8131305 
   71500    1.0288693    1.5402173   0.29940966     1.839627 
   72000    1.0010343    1.4985484   0.29330388    1.7918523 
   72500    1.0638451    1.5925762   0.30823787     1.900814 
   73000   0.99787648    1.4938211   0.28453619    1.7783573 
   73500   0.98656298    1.4768848   0.25002821     1.726913 
   74000   0.99280295     1.486226   0.27012173    1.7563478 
   74500    1.0059206    1.5058632   0.27406953    1.7799327 
   75000   0.98404382    1.4731136    0.3466625    1.8197761 
   75500    1.0552571    1.5797199   0.27713909    1.8568589 
   76000   0.97496476    1.4595222   0.24661568    1.7061379 
   76500   0.98611833    1.4762191   0.27774423    1.7539634 
   77000    1.0213116    1.5289034   0.24539737    1.7743008 
   77500    1.0244352    1.5335795   0.24190979    1.7754892 
   78000   0.94277217    1.4113299   0.26386741    1.6751973 
   78500   0.96910407    1.4507488   0.31584141    1.7665902 
   79000    1.0173424    1.5229616   0.30686651    1.8298282 
   79500   0.92839334    1.3898048   0.30043421     1.690239 
   80000    1.0250588     1.534513   0.32019328    1.8547063 
   80500   0.96930916    1.4510558   0.26785883    1.7189146 
   81000   0.98204956    1.4701282   0.32593823    1.7960664 
   81500    1.0301022     1.542063   0.24772829    1.7897913 
   82000   0.97593853      1.46098   0.27782931    1.7388093 
   82500   0.92557124    1.3855801   0.29454432    1.6801245 
   83000   0.98960461    1.4814381   0.29473833    1.7761764 
   83500    1.0136168    1.5173843   0.25354357    1.7709279 
   84000   0.99121359    1.4838467   0.26104061    1.7448874 
   84500    0.9713375    1.4540922   0.24513005    1.6992223 
   85000    1.0739386     1.607686    0.2756815    1.8833676 
   85500    1.0048387    1.5042435   0.21583217    1.7200757 
   86000   0.98017699    1.4673249   0.26959964    1.7369246 
   86500   0.98184609    1.4698236   0.24169036     1.711514 
   87000   0.98481942    1.4742747   0.31232393    1.7865986 
   87500    1.0207695    1.5280919    0.2382621     1.766354 
   88000   0.97696248    1.4625128   0.26701368    1.7295265 
   88500    1.0000955     1.497143   0.24076126    1.7379042 
   89000     1.037483    1.5531121   0.27938718    1.8324993 
   89500    1.0932634    1.6366153   0.27027205    1.9068874 
   90000    1.0284491    1.5395883   0.27865113    1.8182394 
   90500   0.97371226    1.4576473   0.24630486    1.7039521 
   91000    1.0478625    1.5686502   0.24409915    1.8127494 
   91500     1.055915    1.5807048   0.23226466    1.8129695 
   92000   0.97872715    1.4651546   0.24316138    1.7083159 
   92500    1.0341394    1.5481066   0.30345276    1.8515594 
   93000    0.9650083    1.4446174   0.25748826    1.7021057 
   93500    1.0200263    1.5269793   0.24221893    1.7691983 
   94000    1.0515394    1.5741545   0.26817264    1.8423271 
   94500   0.92386084    1.3830197   0.27473717    1.6577568 
   95000    1.0143068    1.5184172   0.23799692    1.7564142 
   95500   0.95001647    1.4221747   0.24247134     1.664646 
   96000    0.9815487    1.4693784   0.22926317    1.6986416 
   96500   0.98103822    1.4686142   0.23241013    1.7010243 
   97000   0.95991645    1.4369949   0.23133699    1.6683319 
   97500   0.99566448    1.4905097      0.27564    1.7661497 
   98000    1.0160271    1.5209925   0.26390538    1.7848979 
   98500    0.9467449    1.4172771   0.28255969    1.6998368 
   99000   0.97381545    1.4578017   0.24760407    1.7054058 
   99500   0.99010321    1.4821845    0.3044619    1.7866464 
  100000      0.96235    1.4406379   0.30211769    1.7427556 
  100064    1.0533114    1.5768071   0.25967867    1.8364858 
Loop time of 5.68579 on 1 procs for 100000 steps with 500 atoms

Performance: 1519576.999 tau/day, 17587.697 timesteps/s
100.0% CPU use with 1 MPI tasks x no OpenMP threads

MPI task timing breakdown:
Section |  min time  |  avg time  |  max time  |%varavg| %total
---------------------------------------------------------------
Pair    | 1.4133     | 1.4133     | 1.4133     |   0.0 | 24.86
Neigh   | 0.16347    | 0.16347    | 0.16347    |   0.0 |  2.88
Comm    | 0.73503    | 0.73503    | 0.73503    |   0.0 | 12.93
Output  | 0.021186   | 0.021186   | 0.021186   |   0.0 |  0.37
Modify  | 3.1287     | 3.1287     | 3.1287     |   0.0 | 55.03
Other   |            | 0.2241     |            |       |  3.94

Nlocal:    500 ave 500 max 500 min
Histogram: 1 0 0 0 0 0 0 0 0 0
Nghost:    581 ave 581 max 581 min
Histogram: 1 0 0 0 0 0 0 0 0 0
Neighs:    2064 ave 2064 max 2064 min
Histogram: 1 0 0 0 0 0 0 0 0 0

Total # of neighbors = 2064
Ave neighs/atom = 4.128
Neighbor list builds = 346
Dangerous builds = 0

write_data data.${outfile} nocoeff nofix
write_data data.1675782587 nocoeff nofix
Total wall time: 0:00:05
