LAMMPS (21 Nov 2023)
OMP_NUM_THREADS environment is not set. Defaulting to 1 thread. (src/comm.cpp:98)
  using 1 OpenMP thread(s) per MPI task
###variable outfile string L15.17
###variable L equal 15.17

units lj

newton off
atom_style      sphere
boundary        p p p
comm_modify     mode single vel yes


region      boxid block 0.0     $L      0.0       $L      0.0       $L
region      boxid block 0.0     4.550827520987483      0.0       $L      0.0       $L
region      boxid block 0.0     4.550827520987483      0.0       4.550827520987483      0.0       $L
region      boxid block 0.0     4.550827520987483      0.0       4.550827520987483      0.0       4.550827520987483
#create_box  1 boxid
include create_box.in
create_box 1 boxid
Created orthogonal box = (0 0 0) to (4.5508275 4.5508275 4.5508275)
  1 by 1 by 1 MPI processor grid


######
include create_np.in
create_atoms 1 random 72 1156 boxid
Created 72 atoms
  using lattice units in orthogonal box = (0 0 0) to (4.5508275 4.5508275 4.5508275)
  create_atoms CPU = 0.000 seconds
velocity    all create 1.0 87287 dist gaussian

#####
include particles.in
set type 1 diameter 1.0
Setting atom values ...
  72 settings made for diameter
set type 1 mass 26.0
Setting atom values ...
  72 settings made for mass

###
fix 1 all langevin 1.0 1.0 0.1 12345
fix 2 all nve/sphere

###
pair_style lj/cut 1.
include pots_lj_lan.in
pair_coeff 1 1 10.0 1.0 1.122462048309373
pair_modify shift yes



minimize          1.0e-4 1.0e-6 1000 1000
Generated 0 of 0 mixed pair_coeff terms from geometric mixing rule
Neighbor list info ...
  update: every = 1 steps, delay = 0 steps, check = yes
  max neighbors/atom: 2000, page size: 100000
  master list distance cutoff = 1.422462
  ghost atom cutoff = 1.422462
  binsize = 0.71123102, bins = 7 7 7
  1 neighbor lists, perpetual/occasional/extra = 1 0 0
  (1) pair lj/cut, perpetual
      attributes: half, newton off
      pair build: half/bin/newtoff
      stencil: full/bin/3d
      bin: standard
Per MPI rank memory allocation (min/avg/max) = 5.45 | 5.45 | 5.45 Mbytes
   Step          Temp          E_pair         E_mol          TotEng         Press     
         0   49.656342      2.2724932e+13  0              2.2724932e+13  6.9442282e+13
        79   49.656342      0.0009303805   0              73.450937      37.722903    
Loop time of 0.00392279 on 1 procs for 79 steps with 72 atoms

606.3% CPU use with 1 MPI tasks x 1 OpenMP threads

Minimization stats:
  Stopping criterion = energy tolerance
  Energy initial, next-to-last, final = 
      22724931725976.9 0.000930459410260697 0.000930380497538093
  Force two-norm initial, final = 3.7819656e+17 7.5931919
  Force max component initial, final = 1.7657807e+17 1.7385104
  Final line search alpha, max atom move = 0.0017971988 0.0031244488
  Iterations, force evaluations = 79 350

MPI task timing breakdown:
Section |  min time  |  avg time  |  max time  |%varavg| %total
---------------------------------------------------------------
Pair    | 0.0015894  | 0.0015894  | 0.0015894  |   0.0 | 40.52
Neigh   | 0.0010012  | 0.0010012  | 0.0010012  |   0.0 | 25.52
Comm    | 0.00093822 | 0.00093822 | 0.00093822 |   0.0 | 23.92
Output  | 0          | 0          | 0          |   0.0 |  0.00
Modify  | 0          | 0          | 0          |   0.0 |  0.00
Other   |            | 0.000394   |            |       | 10.04

Nlocal:             72 ave          72 max          72 min
Histogram: 1 0 0 0 0 0 0 0 0 0
Nghost:            224 ave         224 max         224 min
Histogram: 1 0 0 0 0 0 0 0 0 0
Neighs:            474 ave         474 max         474 min
Histogram: 1 0 0 0 0 0 0 0 0 0

Total # of neighbors = 474
Ave neighs/atom = 6.5833333
Neighbor list builds = 20
Dangerous builds = 1

thermo_style custom step temp ke pe etotal
thermo 500
timestep 0.001
#dump    id all custom 5000 out_lan_${outfile}.lammpstrj id type radius mass xu yu zu vx vy vz fx fy fz
dump    id all custom 5000 out_lan_${outfile}.lammpstrj id type radius mass x y z
dump    id all custom 5000 out_lan_1709054645.lammpstrj id type radius mass x y z
run 100000
Generated 0 of 0 mixed pair_coeff terms from geometric mixing rule
Per MPI rank memory allocation (min/avg/max) = 4.325 | 4.325 | 4.325 Mbytes
   Step          Temp          KinEng         PotEng         TotEng    
        79   49.656342      73.450006      0.0009303805   73.450937    
       500   1.0248327      1.5158984      1.7848732      3.3007716    
      1000   1.0916558      1.6147408      0.96980506     2.5845459    
      1500   1.0021609      1.482363       1.0203763      2.5027393    
      2000   0.95508156     1.4127248      0.93500734     2.3477322    
      2500   1.0785016      1.5952836      0.81610597     2.4113895    
      3000   1.0412299      1.5401526      0.80876232     2.3489149    
      3500   0.92448214     1.3674632      0.77673062     2.1441938    
      4000   1.1090379      1.6404518      0.85738807     2.4978399    
      4500   0.99331756     1.4692822      0.87371147     2.3429937    
      5000   0.82747342     1.2239711      0.95753201     2.1815031    
      5500   1.0584942      1.5656893      0.95842056     2.5241099    
      6000   1.0840109      1.6034328      0.98905427     2.592487     
      6500   1.0879719      1.6092917      0.77166227     2.380954     
      7000   0.81982564     1.2126588      0.77707686     1.9897356    
      7500   1.120976       1.6581104      0.67242583     2.3305362    
      8000   1.0435814      1.5436308      0.69533209     2.2389629    
      8500   1.1527939      1.7051742      0.73067382     2.4358481    
      9000   1.0430424      1.5428336      0.79227325     2.3351069    
      9500   1.0520037      1.5560888      0.76369114     2.31978      
     10000   0.91594061     1.3548288      0.53318103     1.8880099    
     10500   1.0373009      1.5343409      0.68469091     2.2190318    
     11000   1.1296331      1.6709156      0.73848511     2.4094007    
     11500   1.08252        1.6012275      0.67604116     2.2772687    
     12000   0.94870748     1.4032965      0.88471687     2.2880134    
     12500   1.0337193      1.5290431      0.69223593     2.2212791    
     13000   1.0189841      1.5072473      0.63353424     2.1407816    
     13500   1.1411381      1.6879334      0.75720561     2.445139     
     14000   1.1286166      1.669412       0.78715077     2.4565628    
     14500   1.147842       1.6978497      0.83282779     2.5306775    
     15000   0.81515935     1.2057565      0.79739644     2.003153     
     15500   1.0410879      1.5399426      0.59773496     2.1376775    
     16000   0.93414539     1.3817567      0.72796923     2.109726     
     16500   0.79745509     1.179569       0.60085689     1.7804259    
     17000   1.1205937      1.6575449      0.86091747     2.5184623    
     17500   1.021465       1.510917       0.59851975     2.1094367    
     18000   1.1021556      1.6302719      0.76945469     2.3997266    
     18500   1.1190697      1.6552905      0.76632421     2.4216148    
     19000   1.0929853      1.6167074      0.67113438     2.2878418    
     19500   1.0149151      1.5012286      0.64698989     2.1482185    
     20000   1.2366087      1.8291504      0.89740435     2.7265548    
     20500   0.99641002     1.4738565      0.60353364     2.0773901    
     21000   1.1239687      1.662537       0.84469789     2.5072349    
     21500   0.86611743     1.281132       0.69160451     1.9727365    
     22000   0.83972983     1.2421004      0.88544025     2.1275406    
     22500   0.99270437     1.4683752      0.86003849     2.3284137    
     23000   1.1005315      1.6278696      0.92109828     2.5489678    
     23500   0.91587978     1.3547388      0.76601586     2.1207547    
     24000   0.8398071      1.2422147      0.79254331     2.034758     
     24500   1.0712065      1.584493       0.778927       2.36342      
     25000   1.1217099      1.6591959      0.88204817     2.541244     
     25500   0.89594464     1.3252514      0.69136355     2.016615     
     26000   0.89756121     1.3276426      0.78012044     2.1077631    
     26500   1.2319585      1.822272       0.77526125     2.5975332    
     27000   1.0845215      1.604188       0.92709695     2.531285     
     27500   1.0264638      1.518311       0.68139113     2.1997021    
     28000   1.0721583      1.5859008      0.79155903     2.3774599    
     28500   0.99442386     1.4709186      0.9211564      2.392075     
     29000   1.0972839      1.6230657      0.68836495     2.3114307    
     29500   0.94088407     1.3917244      0.64745295     2.0391773    
     30000   1.1013061      1.6290153      0.95936056     2.5883759    
     30500   1.0330233      1.5280137      1.0689124      2.5969261    
     31000   1.0545756      1.5598931      0.97802301     2.5379162    
     31500   0.96537469     1.4279501      0.71876139     2.1467114    
     32000   1.1179718      1.6536666      0.71079861     2.3644652    
     32500   0.93144938     1.3777689      0.71825877     2.0960276    
     33000   1.0871959      1.6081439      0.90580378     2.5139477    
     33500   0.86368942     1.2775406      0.83490092     2.1124415    
     34000   1.1755665      1.7388588      0.79022149     2.5290803    
     34500   1.0227248      1.5127804      0.81693884     2.3297193    
     35000   1.0547578      1.5601626      0.82653227     2.3866949    
     35500   0.92807243     1.3727738      0.58606745     1.9588413    
     36000   1.1605183      1.7166         0.79053733     2.5071373    
     36500   0.92607143     1.369814       0.67875908     2.0485731    
     37000   1.1702125      1.7309393      0.7125061      2.4434454    
     37500   0.95688875     1.4153979      0.76129074     2.1766887    
     38000   1.1272301      1.6673613      0.86970333     2.5370646    
     38500   0.97871088     1.4476765      0.83889976     2.2865763    
     39000   1.0463482      1.5477234      0.65574888     2.2034722    
     39500   1.002168       1.4823735      0.82953437     2.3119079    
     40000   1.0631294      1.5725456      0.84810434     2.4206499    
     40500   1.0704729      1.5834078      0.78526029     2.3686681    
     41000   0.95345625     1.4103207      0.7050027      2.1153234    
     41500   1.2261687      1.8137079      0.79877328     2.6124811    
     42000   1.1026757      1.6310412      0.76342952     2.3944707    
     42500   1.148615       1.6989931      0.69572363     2.3947167    
     43000   0.93615844     1.3847344      0.76060825     2.1453426    
     43500   1.0099218      1.4938427      0.67389004     2.1677327    
     44000   1.029481       1.522774       0.83294909     2.3557231    
     44500   0.95994252     1.419915       0.8367806      2.2566956    
     45000   1.1494416      1.7002157      0.58589082     2.2861065    
     45500   1.0946513      1.6191718      0.64608268     2.2652545    
     46000   1.0023698      1.482672       0.63056115     2.1132331    
     46500   0.87787962     1.2985303      0.66577836     1.9643086    
     47000   1.0233567      1.5137152      0.63866884     2.152384     
     47500   0.97522807     1.4425248      0.60343331     2.0459582    
     48000   1.1818521      1.7481562      0.4852677      2.2334239    
     48500   0.89718998     1.3270935      0.62907813     1.9561716    
     49000   1.1593477      1.7148685      0.58436119     2.2992296    
     49500   1.0193058      1.5077232      0.65918414     2.1669073    
     50000   1.2299359      1.8192802      0.67920833     2.4984885    
     50500   0.84052856     1.2432818      0.57552998     1.8188118    
     51000   1.0591053      1.5665932      0.79625586     2.3628491    
     51500   0.84344585     1.247597       0.65302249     1.9006195    
     52000   0.82897092     1.2261862      0.60457953     1.8307657    
     52500   0.99887771     1.4775066      0.81545337     2.29296      
     53000   0.96097524     1.4214425      0.88766441     2.3091069    
     53500   1.1082299      1.6392568      0.62772993     2.2669867    
     54000   1.1131079      1.6464721      0.78394056     2.4304126    
     54500   1.0610923      1.5695324      0.88828092     2.4578133    
     55000   1.0440535      1.5443292      0.72740432     2.2717335    
     55500   0.83943228     1.2416602      0.67385707     1.9155173    
     56000   0.98652548     1.4592356      0.69474633     2.1539819    
     56500   1.0562237      1.5623309      0.75101006     2.3133409    
     57000   0.90947984     1.3452723      0.65038138     1.9956537    
     57500   1.1625379      1.7195874      0.76019046     2.4797778    
     58000   0.96561878     1.4283111      0.91759369     2.3459048    
     58500   0.99672426     1.4743213      0.86676702     2.3410883    
     59000   1.0867933      1.6075484      0.65373938     2.2612877    
     59500   0.87836181     1.2992435      0.78943728     2.0886808    
     60000   0.90012054     1.3314283      0.77954387     2.1109722    
     60500   1.0572471      1.5638447      0.82976105     2.3936057    
     61000   0.98944197     1.4635496      0.63458237     2.0981319    
     61500   1.0811365      1.599181       0.57478483     2.1739659    
     62000   1.0238579      1.5144565      0.53666821     2.0511247    
     62500   1.0491303      1.5518385      0.72224302     2.2740816    
     63000   1.0896852      1.611826       0.73234644     2.3441725    
     63500   0.96458929     1.4267883      0.67263443     2.0994228    
     64000   1.0463444      1.5477177      0.81631383     2.3640316    
     64500   0.97478971     1.4418764      0.7446249      2.1865013    
     65000   1.0017595      1.4817692      0.67269069     2.1544599    
     65500   0.93419732     1.3818335      0.80310118     2.1849347    
     66000   0.98696282     1.4598825      1.0135953      2.4734778    
     66500   0.83264354     1.2316186      0.65200713     1.8836257    
     67000   1.0564909      1.5627261      0.73092703     2.2936531    
     67500   1.2065487      1.7846866      0.69152514     2.4762117    
     68000   1.0240229      1.5147006      0.72999236     2.244693     
     68500   0.90612288     1.3403068      0.80332199     2.1436287    
     69000   1.0343688      1.5300038      0.6910843      2.2210881    
     69500   1.2176051      1.8010409      0.72346352     2.5245044    
     70000   1.0733147      1.5876114      0.70823247     2.2958439    
     70500   0.8640661      1.2780978      0.81924019     2.097338     
     71000   1.0002784      1.4795785      0.73927942     2.2188579    
     71500   0.92973396     1.3752315      0.73668056     2.111912     
     72000   0.98073063     1.4506641      0.73250329     2.1831673    
     72500   1.1256667      1.6650487      0.74610074     2.4111495    
     73000   0.96591154     1.4287441      0.74987875     2.1786229    
     73500   0.96598246     1.4288491      0.84322136     2.2720704    
     74000   0.90186201     1.3340042      0.6529609      1.9869651    
     74500   0.93821213     1.3877721      0.73563648     2.1234086    
     75000   0.94999255     1.4051973      0.56715343     1.9723507    
     75500   0.99418388     1.4705637      0.71755885     2.1881225    
     76000   0.90300309     1.3356921      0.68439831     2.0200904    
     76500   1.1672457      1.726551       0.81732658     2.5438775    
     77000   1.0842108      1.6037285      0.89034495     2.4940734    
     77500   1.0305495      1.5243544      0.75529715     2.2796516    
     78000   0.9398773      1.3902352      0.64713407     2.0373692    
     78500   0.99620098     1.4735473      0.76583029     2.2393776    
     79000   1.1142877      1.6482173      0.59547213     2.2436894    
     79500   1.0611624      1.569636       0.65679862     2.2264346    
     80000   0.97850787     1.4473762      0.63919907     2.0865753    
     80500   0.93150165     1.3778462      0.7278646      2.1057108    
     81000   1.0130081      1.4984079      0.55056386     2.0489717    
     81500   1.0013045      1.4810962      0.58032811     2.0614243    
     82000   1.1790701      1.7440411      0.64786009     2.3919012    
     82500   0.87558361     1.2951341      0.6530592      1.9481933    
     83000   0.94019695     1.390708       0.64738241     2.0380904    
     83500   0.96663898     1.4298202      0.7840511      2.2138713    
     84000   0.86060175     1.2729734      0.61869219     1.8916656    
     84500   1.1619627      1.7187364      0.79849592     2.5172323    
     85000   0.93818679     1.3877346      0.78674778     2.1744824    
     85500   0.89629492     1.3257696      0.72247861     2.0482482    
     86000   1.047948       1.5500898      0.74958168     2.2996715    
     86500   0.98524936     1.457348       0.79729103     2.254639     
     87000   1.0250706      1.5162503      0.68291038     2.1991607    
     87500   0.93036265     1.3761614      0.67526968     2.0514311    
     88000   1.0139964      1.4998697      0.97748839     2.4773581    
     88500   1.0745566      1.5894483      0.61470737     2.2041557    
     89000   1.0770739      1.5931718      0.70006723     2.2932391    
     89500   0.85447939     1.2639174      0.59962095     1.8635384    
     90000   0.95410944     1.4112869      0.70884545     2.1201323    
     90500   0.93402514     1.3815788      0.6803908      2.0619696    
     91000   0.99612439     1.473434       0.88184143     2.3552754    
     91500   1.0713448      1.5846975      0.61741846     2.2021159    
     92000   1.1178305      1.6534576      0.66010295     2.3135605    
     92500   1.0125272      1.4976965      0.75865121     2.2563478    
     93000   0.95013812     1.4054126      0.73096287     2.1363755    
     93500   1.041325       1.5402933      0.70914312     2.2494364    
     94000   0.90260027     1.3350962      0.67465931     2.0097555    
     94500   0.92255851     1.3646178      0.64224342     2.0068612    
     95000   0.96415748     1.4261496      0.78573999     2.2118896    
     95500   1.0662306      1.5771328      0.64712233     2.2242551    
     96000   0.86217631     1.2753025      0.64638551     1.921688     
     96500   0.9080518      1.34316        0.42002443     1.7631844    
     97000   0.85102149     1.2588026      0.63126258     1.8900652    
     97500   1.0579148      1.5648323      0.53338806     2.0982203    
     98000   1.0158058      1.5025461      0.60607703     2.1086231    
     98500   1.1426711      1.690201       0.65760855     2.3478096    
     99000   0.93811196     1.3876239      0.63448083     2.0221048    
     99500   0.90926851     1.3449597      0.64862783     1.9935875    
    100000   1.0103498      1.4944757      0.75921279     2.2536885    
    100079   0.93552658     1.3837997      0.79291044     2.1767102    
Loop time of 0.7074 on 1 procs for 100000 steps with 72 atoms

Performance: 12213733.120 tau/day, 141362.652 timesteps/s, 10.178 Matom-step/s
128.8% CPU use with 1 MPI tasks x 1 OpenMP threads

MPI task timing breakdown:
Section |  min time  |  avg time  |  max time  |%varavg| %total
---------------------------------------------------------------
Pair    | 0.16241    | 0.16241    | 0.16241    |   0.0 | 22.96
Neigh   | 0.010752   | 0.010752   | 0.010752   |   0.0 |  1.52
Comm    | 0.15852    | 0.15852    | 0.15852    |   0.0 | 22.41
Output  | 0.0030776  | 0.0030776  | 0.0030776  |   0.0 |  0.44
Modify  | 0.34995    | 0.34995    | 0.34995    |   0.0 | 49.47
Other   |            | 0.02268    |            |       |  3.21

Nlocal:             72 ave          72 max          72 min
Histogram: 1 0 0 0 0 0 0 0 0 0
Nghost:            230 ave         230 max         230 min
Histogram: 1 0 0 0 0 0 0 0 0 0
Neighs:            498 ave         498 max         498 min
Histogram: 1 0 0 0 0 0 0 0 0 0

Total # of neighbors = 498
Ave neighs/atom = 6.9166667
Neighbor list builds = 239
Dangerous builds = 0

write_data data.${outfile} nocoeff nofix
write_data data.1709054645 nocoeff nofix
System init for write_data ...
Generated 0 of 0 mixed pair_coeff terms from geometric mixing rule
Total wall time: 0:00:00
