LAMMPS (21 Nov 2023)
OMP_NUM_THREADS environment is not set. Defaulting to 1 thread. (src/comm.cpp:98)
  using 1 OpenMP thread(s) per MPI task
###variable outfile string L15.17
###variable L equal 15.17

units lj

newton off
atom_style      sphere
boundary        p p p
comm_modify     mode single vel yes


region      boxid block 0.0     $L      0.0       $L      0.0       $L
region      boxid block 0.0     4.134701201406797      0.0       $L      0.0       $L
region      boxid block 0.0     4.134701201406797      0.0       4.134701201406797      0.0       $L
region      boxid block 0.0     4.134701201406797      0.0       4.134701201406797      0.0       4.134701201406797
#create_box  1 boxid
include create_box.in
create_box 1 boxid
Created orthogonal box = (0 0 0) to (4.1347012 4.1347012 4.1347012)
  1 by 1 by 1 MPI processor grid


######
include create_np.in
create_atoms 1 random 54 2422 boxid
Created 54 atoms
  using lattice units in orthogonal box = (0 0 0) to (4.1347012 4.1347012 4.1347012)
  create_atoms CPU = 0.000 seconds
velocity    all create 1.0 87287 dist gaussian

#####
include particles.in
set type 1 diameter 1.0
Setting atom values ...
  54 settings made for diameter
set type 1 mass 26.0
Setting atom values ...
  54 settings made for mass

###
fix 1 all langevin 1.0 1.0 0.1 12345
fix 2 all nve/sphere

###
pair_style lj/cut 1.
include pots_lj_lan.in
pair_coeff 1 1 10.0 1.0 1.122462048309373
pair_modify shift yes



minimize          1.0e-4 1.0e-6 1000 1000
Generated 0 of 0 mixed pair_coeff terms from geometric mixing rule
Neighbor list info ...
  update: every = 1 steps, delay = 0 steps, check = yes
  max neighbors/atom: 2000, page size: 100000
  master list distance cutoff = 1.422462
  ghost atom cutoff = 1.422462
  binsize = 0.71123102, bins = 6 6 6
  1 neighbor lists, perpetual/occasional/extra = 1 0 0
  (1) pair lj/cut, perpetual
      attributes: half, newton off
      pair build: half/bin/newtoff
      stencil: full/bin/3d
      bin: standard
Per MPI rank memory allocation (min/avg/max) = 5.439 | 5.439 | 5.439 Mbytes
   Step          Temp          E_pair         E_mol          TotEng         Press     
         0   49.656342      1.4995922e+12  0              1.4995922e+12  4.582418e+12 
        76   49.656342      0.0018888169   0              73.107059      37.684181    
Loop time of 0.00318469 on 1 procs for 76 steps with 54 atoms

297.3% CPU use with 1 MPI tasks x 1 OpenMP threads

Minimization stats:
  Stopping criterion = energy tolerance
  Energy initial, next-to-last, final = 
      1499592222109.82 0.00188888548203123 0.00188881686194904
  Force two-norm initial, final = 1.455397e+16 8.1274314
  Force max component initial, final = 7.4729417e+15 1.914101
  Final line search alpha, max atom move = 0.00041662254 0.00079745764
  Iterations, force evaluations = 76 310

MPI task timing breakdown:
Section |  min time  |  avg time  |  max time  |%varavg| %total
---------------------------------------------------------------
Pair    | 0.0011503  | 0.0011503  | 0.0011503  |   0.0 | 36.12
Neigh   | 0.00094384 | 0.00094384 | 0.00094384 |   0.0 | 29.64
Comm    | 0.00079375 | 0.00079375 | 0.00079375 |   0.0 | 24.92
Output  | 0          | 0          | 0          |   0.0 |  0.00
Modify  | 0          | 0          | 0          |   0.0 |  0.00
Other   |            | 0.0002968  |            |       |  9.32

Nlocal:             54 ave          54 max          54 min
Histogram: 1 0 0 0 0 0 0 0 0 0
Nghost:            211 ave         211 max         211 min
Histogram: 1 0 0 0 0 0 0 0 0 0
Neighs:            372 ave         372 max         372 min
Histogram: 1 0 0 0 0 0 0 0 0 0

Total # of neighbors = 372
Ave neighs/atom = 6.8888889
Neighbor list builds = 25
Dangerous builds = 1

thermo_style custom step temp ke pe etotal
thermo 500
timestep 0.001
#dump    id all custom 5000 out_lan_${outfile}.lammpstrj id type radius mass xu yu zu vx vy vz fx fy fz
dump    id all custom 5000 out_lan_${outfile}.lammpstrj id type radius mass x y z
dump    id all custom 5000 out_lan_1708802380.lammpstrj id type radius mass x y z
run 100000
Generated 0 of 0 mixed pair_coeff terms from geometric mixing rule
Per MPI rank memory allocation (min/avg/max) = 4.314 | 4.314 | 4.314 Mbytes
   Step          Temp          KinEng         PotEng         TotEng    
        76   49.656342      73.105171      0.0018888169   73.107059    
       500   1.3425744      1.9765679      1.6715265      3.6480944    
      1000   1.0118866      1.4897219      1.1021761      2.5918981    
      1500   1.0977795      1.6161753      1.0640314      2.6802068    
      2000   1.1382164      1.6757075      1.0576534      2.7333608    
      2500   0.94388984     1.3896156      0.88977562     2.2793912    
      3000   0.84726621     1.2473641      0.75882115     2.0061853    
      3500   1.0049856      1.4795621      0.80850137     2.2880634    
      4000   1.1979405      1.7636346      0.71404974     2.4776843    
      4500   1.0491076      1.5445195      0.81544002     2.3599595    
      5000   1.0096374      1.4864107      0.83418625     2.3205969    
      5500   1.0930923      1.6092748      0.92839681     2.5376716    
      6000   0.97079611     1.4292276      0.89994986     2.3291775    
      6500   0.94523892     1.3916017      0.81847738     2.2100791    
      7000   0.86119807     1.2678749      0.87658565     2.1444606    
      7500   1.1818926      1.7400085      0.68038832     2.4203968    
      8000   0.98286463     1.4469951      0.71550695     2.1625021    
      8500   1.066594       1.5702634      0.73083219     2.3010956    
      9000   1.0086495      1.4849563      0.62174751     2.1067038    
      9500   1.0624275      1.5641294      0.77603497     2.3401643    
     10000   1.0458128      1.5396689      0.86561383     2.4052827    
     10500   1.0592523      1.5594548      0.90282209     2.4622769    
     11000   1.0214919      1.5038631      0.77888214     2.2827452    
     11500   0.5903513      0.86912831     0.66112316     1.5302515    
     12000   1.2556114      1.848539       0.84292101     2.69146      
     12500   1.0336993      1.5218351      0.67877745     2.2006125    
     13000   1.063293       1.5654036      0.65046858     2.2158722    
     13500   0.85345852     1.2564806      0.71078945     1.96727      
     14000   0.93678499     1.3791557      0.77316133     2.152317     
     14500   1.1166652      1.6439793      0.75778264     2.401762     
     15000   1.0807085      1.5910431      0.72367505     2.3147181    
     15500   0.92158803     1.3567824      0.71421868     2.071001     
     16000   1.0121503      1.4901102      0.84026891     2.3303791    
     16500   0.79814841     1.1750518      0.50383907     1.6788909    
     17000   1.0100313      1.4869906      0.76876229     2.2557529    
     17500   0.86688754     1.2762511      0.63782916     1.9140803    
     18000   1.0933894      1.6097122      0.66356859     2.2732808    
     18500   0.9881066      1.4547125      0.63232979     2.0870423    
     19000   0.84228605     1.2400322      0.68414878     1.924181     
     19500   0.89323887     1.3150461      0.62971338     1.9447595    
     20000   1.0362612      1.5256068      0.62127716     2.1468839    
     20500   1.0444197      1.537618       0.81123869     2.3488566    
     21000   0.96447686     1.4199243      0.5659594      1.9858837    
     21500   1.0055329      1.4803679      0.47183531     1.9522032    
     22000   1.0968729      1.6148407      0.83896154     2.4538022    
     22500   1.1097676      1.6338246      0.76164005     2.3954646    
     23000   1.0008753      1.4735109      0.55112087     2.0246318    
     23500   0.99592461     1.4662223      0.52185293     1.9880753    
     24000   0.96573185     1.4217719      0.59638166     2.0181536    
     24500   1.0509671      1.5472571      0.61217155     2.1594287    
     25000   0.91133249     1.3416839      0.67200775     2.0136917    
     25500   0.94618133     1.3929892      0.68901067     2.0819998    
     26000   0.94475814     1.3908939      0.49154172     1.8824356    
     26500   1.0970755      1.6151389      0.64123181     2.2563707    
     27000   1.2245886      1.8028665      0.62069852     2.423565     
     27500   1.0192551      1.50057        0.56000214     2.0605722    
     28000   1.1340068      1.66951        0.53814552     2.2076556    
     28500   1.0262474      1.5108642      0.52974258     2.0406068    
     29000   1.1055275      1.6275821      0.49650432     2.1240864    
     29500   1.0018464      1.4749406      0.67721785     2.1521584    
     30000   1.0950352      1.6121351      0.66303312     2.2751683    
     30500   0.93916778     1.3826637      0.68873639     2.0714001    
     31000   1.0731325      1.5798895      0.57090227     2.1507918    
     31500   1.0858158      1.5985622      0.56863392     2.1671961    
     32000   1.1254822      1.6569599      0.77988668     2.4368466    
     32500   1.0925519      1.6084792      0.6569914      2.2654706    
     33000   1.1093312      1.6331821      0.5556541      2.1888362    
     33500   0.9612941      1.4152385      0.51530953     1.9305481    
     34000   1.0043036      1.4785581      0.46290504     1.9414631    
     34500   1.1219986      1.6518313      0.55852815     2.2103594    
     35000   0.99394628     1.4633098      0.53575983     1.9990696    
     35500   0.99379556     1.4630879      0.7368037      2.1998916    
     36000   1.0435285      1.5363058      0.55736382     2.0936697    
     36500   0.95233811     1.4020533      0.54593039     1.9479837    
     37000   1.1420854      1.6814034      0.49773705     2.1791405    
     37500   1.1142968      1.6404926      0.59747939     2.237972     
     38000   1.1034069      1.6244601      0.48866486     2.113125     
     38500   1.1209532      1.6502922      0.67979184     2.330084     
     39000   1.1540744      1.699054       0.62633978     2.3253938    
     39500   0.96295414     1.4176825      0.49865191     1.9163344    
     40000   1.1213907      1.6509363      0.51838146     2.1693178    
     40500   0.82999605     1.2219386      0.61537985     1.8373185    
     41000   1.1228342      1.6530615      0.58670527     2.2397667    
     41500   1.1769078      1.7326698      0.60675951     2.3394293    
     42000   0.94947426     1.3978371      0.76846717     2.1663043    
     42500   0.96394946     1.4191478      0.69701491     2.1161627    
     43000   0.90214133     1.3281525      0.85017551     2.178328     
     43500   0.97116467     1.4297702      0.66496218     2.0947324    
     44000   1.0711992      1.5770432      0.66803083     2.2450741    
     44500   1.0467821      1.5410958      0.72240613     2.263502     
     45000   0.92726154     1.365135       0.64249778     2.0076328    
     45500   1.0655645      1.5687478      0.6470332      2.215781     
     46000   1.0734418      1.5803449      0.62357887     2.2039237    
     46500   1.0461227      1.5401251      0.4609903      2.0011154    
     47000   1.0609241      1.561916       0.75449848     2.3164145    
     47500   1.0541698      1.5519722      0.60973378     2.161706     
     48000   1.0741833      1.5814366      0.64944022     2.2308768    
     48500   1.2544033      1.8467604      0.50407643     2.3508369    
     49000   1.0873501      1.600821       0.64058042     2.2414014    
     49500   0.98595013     1.4515377      0.60038323     2.0519209    
     50000   1.0554453      1.5538501      0.7420565      2.2959066    
     50500   0.78080018     1.1495114      0.62450213     1.7740135    
     51000   1.1122371      1.6374602      0.71358179     2.351042     
     51500   1.0809073      1.5913357      0.66840206     2.2597378    
     52000   1.0650935      1.5680543      0.59654797     2.1646022    
     52500   1.2296462      1.8103124      0.39723237     2.2075448    
     53000   0.90412491     1.3310728      0.57582146     1.9068942    
     53500   1.0671591      1.5710954      0.55473832     2.1258337    
     54000   1.1557244      1.7014832      0.68550294     2.3869861    
     54500   1.3402389      1.9731294      0.4391099      2.4122393    
     55000   1.0002818      1.472637       0.60107622     2.0737132    
     55500   0.91197044     1.3426231      0.46475427     1.8073774    
     56000   0.88872223     1.3083966      0.62895594     1.9373526    
     56500   1.1138435      1.6398252      0.60711673     2.2469419    
     57000   0.78852316     1.1608813      0.59662171     1.757503     
     57500   1.0619502      1.5634266      0.70119164     2.2646183    
     58000   1.1997474      1.7662947      0.5488098      2.3151045    
     58500   1.0969265      1.6149195      0.55126768     2.1661872    
     59000   1.1546842      1.6999517      0.40209504     2.1020468    
     59500   1.1896514      1.7514312      0.61720576     2.3686369    
     60000   1.0146405      1.4937763      0.58623885     2.0800152    
     60500   1.0542658      1.5521135      0.50544678     2.0575603    
     61000   1.0786961      1.5880803      0.62287729     2.2109576    
     61500   0.86898747     1.2793427      0.5756972      1.8550399    
     62000   1.0846914      1.5969068      0.74162087     2.3385277    
     62500   1.0077422      1.4836204      0.59007728     2.0736977    
     63000   0.93736965     1.3800164      0.58475184     1.9647683    
     63500   1.0010885      1.4738247      0.44026039     1.9140851    
     64000   1.1030238      1.6238961      0.8232971      2.4471932    
     64500   0.93891773     1.3822956      0.65139538     2.0336909    
     65000   0.9345975      1.3759352      0.65147791     2.0274131    
     65500   1.0978082      1.6162177      0.81335316     2.4295708    
     66000   1.0507419      1.5469256      0.61388615     2.1608118    
     66500   1.1620094      1.7107361      0.48937729     2.2001134    
     67000   1.035031       1.5237956      0.86437822     2.3881738    
     67500   1.1357707      1.6721069      0.60587884     2.2779857    
     68000   1.1949895      1.7592901      0.60338309     2.3626732    
     68500   1.1415423      1.680604       0.71943136     2.4000354    
     69000   0.91815477     1.3517279      0.60480582     1.9565337    
     69500   0.97014367     1.4282671      0.58821006     2.0164771    
     70000   1.1095311      1.6334764      0.74515693     2.3786333    
     70500   1.1715112      1.7247248      0.48256578     2.2072905    
     71000   0.79651601     1.1726486      0.85249156     2.0251401    
     71500   1.0759227      1.5839974      0.68306976     2.2670671    
     72000   1.0823295      1.5934295      0.54987889     2.1433084    
     72500   0.96868576     1.4261207      0.75173696     2.1778577    
     73000   0.85774557     1.2627921      0.56808315     1.8308752    
     73500   1.0632097      1.5652809      0.53290021     2.0981811    
     74000   1.1160279      1.6430411      0.55122078     2.1942619    
     74500   1.2636262      1.8603386      0.49976799     2.3601066    
     75000   1.0159926      1.4957668      0.64103183     2.1367987    
     75500   1.0750946      1.5827782      0.54353209     2.1263103    
     76000   1.2206075      1.7970054      0.37945586     2.1764613    
     76500   1.0461347      1.5401428      0.75621532     2.2963581    
     77000   0.93729965     1.3799134      0.65990998     2.0398234    
     77500   0.87845567     1.293282       0.51754131     1.8108233    
     78000   0.95157233     1.4009259      0.50717031     1.9080962    
     78500   0.92822154     1.3665484      0.49248389     1.8590323    
     79000   0.99690504     1.4676658      0.74063781     2.2083036    
     79500   1.019212       1.5005066      0.48511781     1.9856244    
     80000   1.043758       1.5366437      0.67851452     2.2151583    
     80500   1.0239371      1.5074629      0.56553802     2.073001     
     81000   0.91804863     1.3515716      0.54000787     1.8915795    
     81500   1.0430146      1.5355493      0.64015455     2.1757038    
     82000   0.98927921     1.4564388      0.53582296     1.9922618    
     82500   0.78777011     1.1597727      0.52133623     1.6811089    
     83000   0.97913917     1.4415104      0.61109114     2.0526016    
     83500   1.0622886      1.5639248      0.52317746     2.0871023    
     84000   1.1929871      1.7563422      0.48776725     2.2441094    
     84500   0.95180784     1.4012727      0.42754363     1.8288163    
     85000   0.94173384     1.3864415      0.55505321     1.9414947    
     85500   0.93620387     1.3783001      0.57757417     1.9558743    
     86000   0.94744025     1.3948426      0.4961728      1.8910154    
     86500   0.94877373     1.3968058      0.40158439     1.7983902    
     87000   0.91544282     1.3477353      0.45811638     1.8058516    
     87500   1.0150283      1.4943472      0.60107796     2.0954252    
     88000   1.1423288      1.6817618      0.5218644      2.2036262    
     88500   0.9957038      1.4658973      0.47821565     1.9441129    
     89000   1.0557568      1.5543086      0.71604901     2.2703576    
     89500   0.97937948     1.4418642      0.69152444     2.1333887    
     90000   0.97219408     1.4312857      0.70171758     2.1330033    
     90500   1.0084484      1.4846601      0.6026695      2.0873296    
     91000   1.1786433      1.7352248      0.64678207     2.3820069    
     91500   1.0522511      1.5491474      0.68736906     2.2365165    
     92000   1.0048478      1.4793592      0.7019329      2.1812921    
     92500   0.91785156     1.3512815      0.48823835     1.8395198    
     93000   0.93507887     1.3766439      0.67566637     2.0523103    
     93500   1.105479       1.6275108      0.75530295     2.3828138    
     94000   1.0524667      1.5494649      0.63946219     2.188927     
     94500   1.0021563      1.4753968      0.58795416     2.063351     
     95000   0.91155364     1.3420095      0.52014087     1.8621504    
     95500   1.0364955      1.5259517      0.61798429     2.143936     
     96000   1.0733815      1.5802562      0.75247643     2.3327326    
     96500   0.99840434     1.4698731      0.62531455     2.0951876    
     97000   1.1204543      1.6495576      0.56280385     2.2123615    
     97500   1.2254883      1.8041911      0.52086588     2.325057     
     98000   1.0577804      1.5572879      0.45986841     2.0171563    
     98500   1.0249872      1.509009       0.72818562     2.2371946    
     99000   0.93486401     1.3763276      0.59223356     1.9685611    
     99500   1.0508254      1.5470485      0.55680509     2.1038536    
    100000   1.1022948      1.6228229      0.66950197     2.2923249    
    100076   1.1602458      1.7081396      0.510643       2.2187826    
Loop time of 0.580199 on 1 procs for 100000 steps with 54 atoms

Performance: 14891439.519 tau/day, 172354.624 timesteps/s, 9.307 Matom-step/s
140.6% CPU use with 1 MPI tasks x 1 OpenMP threads

MPI task timing breakdown:
Section |  min time  |  avg time  |  max time  |%varavg| %total
---------------------------------------------------------------
Pair    | 0.12944    | 0.12944    | 0.12944    |   0.0 | 22.31
Neigh   | 0.0085989  | 0.0085989  | 0.0085989  |   0.0 |  1.48
Comm    | 0.14454    | 0.14454    | 0.14454    |   0.0 | 24.91
Output  | 0.0029499  | 0.0029499  | 0.0029499  |   0.0 |  0.51
Modify  | 0.27455    | 0.27455    | 0.27455    |   0.0 | 47.32
Other   |            | 0.02012    |            |       |  3.47

Nlocal:             54 ave          54 max          54 min
Histogram: 1 0 0 0 0 0 0 0 0 0
Nghost:            207 ave         207 max         207 min
Histogram: 1 0 0 0 0 0 0 0 0 0
Neighs:            391 ave         391 max         391 min
Histogram: 1 0 0 0 0 0 0 0 0 0

Total # of neighbors = 391
Ave neighs/atom = 7.2407407
Neighbor list builds = 225
Dangerous builds = 0

write_data data.${outfile} nocoeff nofix
write_data data.1708802380 nocoeff nofix
System init for write_data ...
Generated 0 of 0 mixed pair_coeff terms from geometric mixing rule
Total wall time: 0:00:00
