LAMMPS (21 Nov 2023)
OMP_NUM_THREADS environment is not set. Defaulting to 1 thread. (src/comm.cpp:98)
  using 1 OpenMP thread(s) per MPI task
###variable outfile string L15.17
###variable L equal 15.17

units lj

newton off
atom_style      sphere
boundary        p p p
comm_modify     mode single vel yes


region      boxid block 0.0     $L      0.0       $L      0.0       $L
region      boxid block 0.0     4.1347      0.0       $L      0.0       $L
region      boxid block 0.0     4.1347      0.0       4.1347      0.0       $L
region      boxid block 0.0     4.1347      0.0       4.1347      0.0       4.1347
#create_box  1 boxid
include create_box.in
create_box 1 boxid
Created orthogonal box = (0 0 0) to (4.1347 4.1347 4.1347)
  1 by 1 by 1 MPI processor grid


######
include create_np.in
create_atoms 1 random 54 2285 boxid
Created 54 atoms
  using lattice units in orthogonal box = (0 0 0) to (4.1347 4.1347 4.1347)
  create_atoms CPU = 0.000 seconds
velocity    all create 1.0 87287 dist gaussian

#####
include particles.in
set type 1 diameter 1.0
Setting atom values ...
  54 settings made for diameter
set type 1 mass 26.0
Setting atom values ...
  54 settings made for mass

###
fix 1 all langevin 1.0 1.0 0.1 12345
fix 2 all nve/sphere

###
pair_style lj/cut 1.
include pots_lj_lan.in
pair_coeff 1 1 10.0 1.0 1.122462048309373
pair_modify shift yes



minimize          1.0e-4 1.0e-6 1000 1000
Generated 0 of 0 mixed pair_coeff terms from geometric mixing rule
Neighbor list info ...
  update: every = 1 steps, delay = 0 steps, check = yes
  max neighbors/atom: 2000, page size: 100000
  master list distance cutoff = 1.422462
  ghost atom cutoff = 1.422462
  binsize = 0.71123102, bins = 6 6 6
  1 neighbor lists, perpetual/occasional/extra = 1 0 0
  (1) pair lj/cut, perpetual
      attributes: half, newton off
      pair build: half/bin/newtoff
      stencil: full/bin/3d
      bin: standard
Per MPI rank memory allocation (min/avg/max) = 5.438 | 5.438 | 5.438 Mbytes
   Step          Temp          E_pair         E_mol          TotEng         Press     
         0   49.656342      1352524.4      0              1352597.5      4137892.9    
        79   49.656342      2.1909757e-09  0              73.105171      37.232263    
Loop time of 0.00369666 on 1 procs for 79 steps with 54 atoms

498.4% CPU use with 1 MPI tasks x 1 OpenMP threads

Minimization stats:
  Stopping criterion = linesearch alpha is zero
  Energy initial, next-to-last, final = 
      1352524.39838678 2.19097568071797e-09 2.19097568071797e-09
  Force two-norm initial, final = 1.891235e+09 0.016447206
  Force max component initial, final = 1.1309269e+09 0.0092869573
  Final line search alpha, max atom move = 0.00390625 3.6277177e-05
  Iterations, force evaluations = 79 467

MPI task timing breakdown:
Section |  min time  |  avg time  |  max time  |%varavg| %total
---------------------------------------------------------------
Pair    | 0.0012032  | 0.0012032  | 0.0012032  |   0.0 | 32.55
Neigh   | 0.0010061  | 0.0010061  | 0.0010061  |   0.0 | 27.22
Comm    | 0.001107   | 0.001107   | 0.001107   |   0.0 | 29.95
Output  | 0          | 0          | 0          |   0.0 |  0.00
Modify  | 0          | 0          | 0          |   0.0 |  0.00
Other   |            | 0.0003804  |            |       | 10.29

Nlocal:             54 ave          54 max          54 min
Histogram: 1 0 0 0 0 0 0 0 0 0
Nghost:            211 ave         211 max         211 min
Histogram: 1 0 0 0 0 0 0 0 0 0
Neighs:            363 ave         363 max         363 min
Histogram: 1 0 0 0 0 0 0 0 0 0

Total # of neighbors = 363
Ave neighs/atom = 6.7222222
Neighbor list builds = 23
Dangerous builds = 0

thermo_style custom step temp ke pe etotal
thermo 500
timestep 0.001
#dump    id all custom 5000 out_lan_${outfile}.lammpstrj id type radius mass xu yu zu vx vy vz fx fy fz
dump    id all custom 5000 out_lan_${outfile}.lammpstrj id type radius mass x y z
dump    id all custom 5000 out_lan_1708717062.lammpstrj id type radius mass x y z
run 100000
Generated 0 of 0 mixed pair_coeff terms from geometric mixing rule
Per MPI rank memory allocation (min/avg/max) = 4.313 | 4.313 | 4.313 Mbytes
   Step          Temp          KinEng         PotEng         TotEng    
        79   49.656342      73.105171      2.1909757e-09  73.105171    
       500   1.3208005      1.9445119      1.515571       3.4600829    
      1000   1.1036313      1.6247906      0.97558081     2.6003714    
      1500   1.3001752      1.9141468      0.8994645      2.8136113    
      2000   1.1836251      1.7425592      0.79114426     2.5337035    
      2500   1.0761407      1.5843183      0.66723725     2.2515556    
      3000   0.72042137     1.0606204      0.7808695      1.8414898    
      3500   1.0758503      1.5838907      0.5934484      2.1773391    
      4000   1.0764347      1.5847511      0.70550929     2.2902604    
      4500   1.0915371      1.6069852      0.77737403     2.3843593    
      5000   0.91229953     1.3431076      0.83236618     2.1754738    
      5500   1.2913563      1.9011634      0.66917407     2.5703375    
      6000   0.98132693     1.4447313      0.76607076     2.2108021    
      6500   1.1694806      1.7217354      0.51243006     2.2341655    
      7000   0.86717208     1.27667        0.56785732     1.8445273    
      7500   1.089139       1.6034547      0.75655996     2.3600147    
      8000   0.89424167     1.3165225      0.76298656     2.079509     
      8500   0.9676474      1.424592       0.71889952     2.1434915    
      9000   1.0092266      1.4858058      0.66465832     2.1504641    
      9500   1.0087863      1.4851576      0.68062614     2.1657837    
     10000   1.0895477      1.6040563      0.72610062     2.330157     
     10500   1.1616012      1.7101351      0.86191194     2.572047     
     11000   0.99040087     1.4580902      0.84013104     2.2982212    
     11500   0.70756841     1.0416979      0.42828833     1.4699863    
     12000   1.1706899      1.7235157      0.62298585     2.3465016    
     12500   1.0528803      1.5500738      0.68582153     2.2358953    
     13000   1.0480634      1.5429823      0.87746003     2.4204423    
     13500   0.91729079     1.3504559      0.5394162      1.8898721    
     14000   1.0864534      1.5995008      0.7278337      2.3273345    
     14500   1.0998715      1.6192552      0.68696025     2.3062154    
     15000   1.125759       1.6573674      0.6851821      2.3425495    
     15500   0.82258613     1.2110296      0.69720857     1.9082382    
     16000   1.0273832      1.5125363      0.82605038     2.3385867    
     16500   0.81329634     1.1973529      0.75205562     1.9494086    
     17000   1.1276717      1.6601834      0.6197762      2.2799596    
     17500   0.73490719     1.0819467      0.74485006     1.8267968    
     18000   1.0253408      1.5095295      0.95611258     2.4656421    
     18500   0.98334113     1.4476967      0.60247278     2.0501694    
     19000   1.0065286      1.4818338      0.53212598     2.0139598    
     19500   0.93778693     1.3806308      0.68050742     2.0611382    
     20000   0.91085159     1.3409759      0.74195078     2.0829267    
     20500   0.95530124     1.4064157      0.68090388     2.0873196    
     21000   0.92527662     1.3622128      0.61574247     1.9779553    
     21500   0.9513503      1.4005991      0.69091884     2.0915179    
     22000   1.0916449      1.6071439      0.67072286     2.2778668    
     22500   1.034592       1.5231493      0.65213468     2.175284     
     23000   0.95006609     1.3987084      0.63149981     2.0302082    
     23500   0.90225559     1.3283207      0.70269679     2.0310175    
     24000   0.97222355     1.4313291      0.56121413     1.9925433    
     24500   1.0129775      1.491328       0.55331052     2.0446385    
     25000   0.82897848     1.2204405      0.67451559     1.8949561    
     25500   0.955028       1.4060134      0.65717481     2.0631883    
     26000   0.84331338     1.2415447      0.58833061     1.8298753    
     26500   1.1579641      1.7047804      0.56249117     2.2672716    
     27000   1.2481618      1.8375715      0.73828069     2.5758522    
     27500   1.1600705      1.7078816      0.8062252      2.5141068    
     28000   1.1795054      1.7364941      0.50168597     2.2381801    
     28500   0.97588972     1.4367265      0.73223644     2.168963     
     29000   1.0471827      1.5416857      0.7024303      2.244116     
     29500   0.98417319     1.4489216      0.77955187     2.2284735    
     30000   1.1444991      1.6849569      0.71040847     2.3953654    
     30500   0.86251383     1.269812       0.55474211     1.8245541    
     31000   0.99773358     1.4688856      0.64900154     2.1178871    
     31500   1.0575614      1.5569654      0.6469206      2.203886     
     32000   1.1533027      1.6979179      0.75820221     2.4561201    
     32500   1.2151335      1.7889466      0.68630755     2.4752541    
     33000   1.0345435      1.5230779      0.6871828      2.2102607    
     33500   0.97758788     1.4392266      0.83601707     2.2752437    
     34000   1.0248776      1.5088475      0.58674944     2.095597     
     34500   1.0358945      1.5250669      0.72116572     2.2462326    
     35000   0.97295491     1.4324058      0.50409402     1.9364999    
     35500   1.0749508      1.5825665      0.5560331      2.1385996    
     36000   1.0030978      1.4767829      0.52712002     2.0039029    
     36500   1.0543178      1.5521901      0.6693086      2.2214987    
     37000   1.0356482      1.5247042      0.46400819     1.9887124    
     37500   1.1486376      1.6910498      0.44195911     2.1330089    
     38000   1.0252097      1.5093364      0.67059557     2.179932     
     38500   1.0968434      1.6147972      0.66258909     2.2773863    
     39000   1.1359954      1.6724376      0.59020471     2.2626423    
     39500   0.9926287      1.46137        0.54099807     2.0023681    
     40000   0.98810217     1.454706       0.63712181     2.0918278    
     40500   0.93876348     1.3820685      0.58945202     1.9715205    
     41000   1.1787822      1.7354293      0.76542798     2.5008573    
     41500   1.0083366      1.4844955      0.75190763     2.2364032    
     42000   0.91037232     1.3402704      0.63132879     1.9715992    
     42500   0.97144712     1.430186       0.72368089     2.1538669    
     43000   0.98412481     1.4488504      0.60036593     2.0492163    
     43500   0.88983181     1.3100302      0.76112431     2.0711545    
     44000   0.92642247     1.3638998      0.453366       1.8172658    
     44500   1.0190379      1.5002502      0.63213399     2.1323842    
     45000   0.88865798     1.308302       0.61414247     1.9224445    
     45500   1.1192374      1.6477662      0.53808366     2.1858499    
     46000   1.1181655      1.6461881      0.6811651      2.3273532    
     46500   1.0386685      1.5291509      0.4937172      2.022868     
     47000   1.1526263      1.696922       0.51284937     2.2097714    
     47500   0.97078118     1.4292056      0.48408206     1.9132877    
     48000   1.1190484      1.6474879      0.55802181     2.2055098    
     48500   1.2488266      1.8385503      0.63368971     2.47224      
     49000   0.95364992     1.4039846      0.51989404     1.9238787    
     49500   1.0033364      1.4771341      0.4518042      1.9289383    
     50000   0.97855699     1.4406533      0.58290694     2.0235603    
     50500   0.93597711     1.3779663      0.40493386     1.7829002    
     51000   1.101386       1.621485       0.52115387     2.1426388    
     51500   1.1165805      1.6438547      0.58331278     2.2271675    
     52000   1.1552833      1.7008338      0.65870434     2.3595381    
     52500   1.1485136      1.6908673      0.71058703     2.4014543    
     53000   0.94882609     1.3968829      0.68815878     2.0850416    
     53500   1.0325936      1.5202072      0.48647908     2.0066863    
     54000   1.137755       1.6750282      0.5279681      2.2029963    
     54500   1.1939063      1.7576954      0.56677794     2.3244733    
     55000   0.89614574     1.3193257      0.83400846     2.1533341    
     55500   0.98128198     1.4446651      0.592098       2.0367631    
     56000   0.98242665     1.4463503      0.48477358     1.9311239    
     56500   1.1664151      1.7172222      0.62868355     2.3459058    
     57000   0.81187959     1.1952672      0.44970084     1.644968     
     57500   1.1252861      1.6566712      0.53972884     2.1964       
     58000   1.0488463      1.5441348      0.61022371     2.1543585    
     58500   1.1163844      1.6435659      0.49673337     2.1402992    
     59000   1.0998349      1.6192014      0.637123       2.2563244    
     59500   1.1599741      1.7077396      0.57687039     2.28461      
     60000   0.96109741     1.414949       0.76148611     2.1764351    
     60500   0.99035037     1.4580158      0.53250569     1.9905215    
     61000   1.0830433      1.5944803      0.5253158      2.1197961    
     61500   0.94983302     1.3983653      0.63761578     2.0359811    
     62000   1.0368673      1.526499       0.59401589     2.1205149    
     62500   1.0428713      1.5353382      0.53320074     2.068539     
     63000   0.88955651     1.3096249      0.56391604     1.8735409    
     63500   0.92162097     1.3568309      0.59010454     1.9469354    
     64000   1.2043862      1.7731241      0.58212713     2.3552512    
     64500   1.0058331      1.4808098      0.73568224     2.2164921    
     65000   0.90746703     1.3359931      0.62818273     1.9641759    
     65500   0.99566325     1.4658376      0.67575283     2.1415904    
     66000   1.0866557      1.5997987      0.81880837     2.4186071    
     66500   0.89092606     1.3116411      0.75325919     2.0649003    
     67000   0.94911459     1.3973076      0.8542864      2.251594     
     67500   0.92819796     1.3665137      0.86324496     2.2297586    
     68000   1.0201527      1.5018914      0.83576175     2.3376532    
     68500   1.1588944      1.7061501      0.41908453     2.1252346    
     69000   1.0142         1.4931277      0.82336286     2.3164906    
     69500   0.95298376     1.4030039      0.64608805     2.0490919    
     70000   1.1573116      1.7038198      0.6055743      2.3093941    
     70500   1.1139686      1.6400093      0.57456681     2.2145761    
     71000   0.95808835     1.410519       0.63338362     2.0439026    
     71500   0.96708142     1.4237588      0.60924515     2.0330039    
     72000   0.91698606     1.3500073      0.55641326     1.9064205    
     72500   1.0612388      1.5623794      0.56098261     2.123362     
     73000   0.79029981     1.1634969      0.69451677     1.8580137    
     73500   1.0803636      1.5905353      0.56200426     2.1525396    
     74000   1.1198582      1.6486802      0.41050778     2.0591879    
     74500   1.1874741      1.7482258      0.58554645     2.3337722    
     75000   0.89093114     1.3116486      0.65848799     1.9701366    
     75500   0.94189589     1.3866801      0.58129171     1.9679718    
     76000   1.1539503      1.6988713      0.5781381      2.2770094    
     76500   1.0463525      1.5404634      0.75105537     2.2915187    
     77000   0.91481399     1.3468095      0.53228862     1.8790981    
     77500   0.8306024      1.2228313      0.61418817     1.8370195    
     78000   0.99476932     1.4645215      0.51158491     1.9761064    
     78500   0.90851243     1.3375322      0.51228261     1.8498148    
     79000   1.0559893      1.5546509      0.72418305     2.2788339    
     79500   1.0067462      1.4821542      0.55388657     2.0360408    
     80000   0.99992381     1.4721101      0.67383002     2.1459401    
     80500   1.0070888      1.4826584      0.53638068     2.0190391    
     81000   1.0353188      1.5242193      0.40694054     1.9311598    
     81500   1.1820842      1.7402907      0.50275713     2.2430478    
     82000   0.96951288     1.4273384      0.53997194     1.9673103    
     82500   0.87534909     1.2887084      0.53389422     1.8226026    
     83000   1.0415353      1.5333713      0.49183847     2.0252098    
     83500   1.0732583      1.5800747      0.61157537     2.1916501    
     84000   1.2820382      1.8874451      0.38708814     2.2745333    
     84500   1.0378949      1.5280119      0.59148532     2.1194973    
     85000   0.95694262     1.4088322      0.38172712     1.7905593    
     85500   0.98802684     1.4545951      0.57007028     2.0246654    
     86000   0.85679962     1.2613994      0.62355452     1.884954     
     86500   0.96490085     1.4205485      0.55964093     1.9801894    
     87000   0.98634567     1.45212        0.46725047     1.9193705    
     87500   0.93365931     1.374554       0.56996369     1.9445177    
     88000   1.0659315      1.569288       0.72239601     2.291684     
     88500   0.9833306      1.4476812      0.5985893      2.0462705    
     89000   1.0206641      1.5026444      0.62592974     2.1285742    
     89500   1.0209071      1.5030022      0.4834267      1.9864289    
     90000   0.80664595     1.1875621      0.78931116     1.9768733    
     90500   0.91340147     1.3447299      0.32507387     1.6698038    
     91000   1.2464347      1.8350289      0.48363422     2.3186631    
     91500   1.1489708      1.6915404      0.51840424     2.2099446    
     92000   1.1018061      1.6221034      0.51351886     2.1356223    
     92500   0.85913003     1.2648303      0.47829944     1.7431298    
     93000   0.94013714     1.3840908      0.72589957     2.1099904    
     93500   1.0917411      1.6072856      0.47695495     2.0842405    
     94000   1.1228131      1.6530304      0.44667357     2.099704     
     94500   1.0686034      1.5732217      0.54164346     2.1148652    
     95000   0.90788123     1.3366029      0.61975673     1.9563597    
     95500   1.0249149      1.5089025      0.73722728     2.2461298    
     96000   1.1500586      1.6931419      0.6687548      2.3618967    
     96500   0.94366762     1.3892884      0.57988897     1.9691774    
     97000   1.1035637      1.6246911      0.62591811     2.2506092    
     97500   1.1577187      1.7044192      0.62817186     2.332591     
     98000   1.049234       1.5447055      0.58243228     2.1271378    
     98500   1.0259467      1.5104215      0.62517905     2.1356005    
     99000   0.99223418     1.4607892      0.57538872     2.0361779    
     99500   0.98297701     1.4471606      0.47389727     1.9210579    
    100000   1.0876295      1.6012323      0.53317735     2.1344097    
    100079   1.0505294      1.5466128      0.53328234     2.0798951    
Loop time of 0.5928 on 1 procs for 100000 steps with 54 atoms

Performance: 14574902.203 tau/day, 168690.998 timesteps/s, 9.109 Matom-step/s
136.6% CPU use with 1 MPI tasks x 1 OpenMP threads

MPI task timing breakdown:
Section |  min time  |  avg time  |  max time  |%varavg| %total
---------------------------------------------------------------
Pair    | 0.13093    | 0.13093    | 0.13093    |   0.0 | 22.09
Neigh   | 0.0088067  | 0.0088067  | 0.0088067  |   0.0 |  1.49
Comm    | 0.14401    | 0.14401    | 0.14401    |   0.0 | 24.29
Output  | 0.0033437  | 0.0033437  | 0.0033437  |   0.0 |  0.56
Modify  | 0.28486    | 0.28486    | 0.28486    |   0.0 | 48.05
Other   |            | 0.02084    |            |       |  3.52

Nlocal:             54 ave          54 max          54 min
Histogram: 1 0 0 0 0 0 0 0 0 0
Nghost:            204 ave         204 max         204 min
Histogram: 1 0 0 0 0 0 0 0 0 0
Neighs:            392 ave         392 max         392 min
Histogram: 1 0 0 0 0 0 0 0 0 0

Total # of neighbors = 392
Ave neighs/atom = 7.2592593
Neighbor list builds = 225
Dangerous builds = 0

write_data data.${outfile} nocoeff nofix
write_data data.1708717062 nocoeff nofix
System init for write_data ...
Generated 0 of 0 mixed pair_coeff terms from geometric mixing rule
Total wall time: 0:00:00
