LAMMPS (21 Nov 2023)
OMP_NUM_THREADS environment is not set. Defaulting to 1 thread. (src/comm.cpp:98)
  using 1 OpenMP thread(s) per MPI task
###variable outfile string L15.17
###variable L equal 15.17

units lj

newton off
atom_style      sphere
boundary        p p p
comm_modify     mode single vel yes


region      boxid block 0.0     $L      0.0       $L      0.0       $L
region      boxid block 0.0     4.3229      0.0       $L      0.0       $L
region      boxid block 0.0     4.3229      0.0       4.3229      0.0       $L
region      boxid block 0.0     4.3229      0.0       4.3229      0.0       4.3229
#create_box  1 boxid
include create_box.in
create_box 1 boxid
Created orthogonal box = (0 0 0) to (4.3229 4.3229 4.3229)
  1 by 1 by 1 MPI processor grid


######
include create_np.in
create_atoms 1 random 54 5843 boxid
Created 54 atoms
  using lattice units in orthogonal box = (0 0 0) to (4.3229 4.3229 4.3229)
  create_atoms CPU = 0.000 seconds
velocity    all create 1.0 87287 dist gaussian

#####
include particles.in
set type 1 diameter 1.0
Setting atom values ...
  54 settings made for diameter
set type 1 mass 26.0
Setting atom values ...
  54 settings made for mass

###
fix 1 all langevin 1.0 1.0 0.1 12345
fix 2 all nve/sphere

###
pair_style lj/cut 1.
include pots_lj_lan.in
pair_coeff 1 1 10.0 1.0 1.122462048309373
pair_modify shift yes



minimize          1.0e-4 1.0e-6 1000 1000
Generated 0 of 0 mixed pair_coeff terms from geometric mixing rule
Neighbor list info ...
  update: every = 1 steps, delay = 0 steps, check = yes
  max neighbors/atom: 2000, page size: 100000
  master list distance cutoff = 1.422462
  ghost atom cutoff = 1.422462
  binsize = 0.71123102, bins = 7 7 7
  1 neighbor lists, perpetual/occasional/extra = 1 0 0
  (1) pair lj/cut, perpetual
      attributes: half, newton off
      pair build: half/bin/newtoff
      stencil: full/bin/3d
      bin: standard
Per MPI rank memory allocation (min/avg/max) = 5.44 | 5.44 | 5.44 Mbytes
   Step          Temp          E_pair         E_mol          TotEng         Press     
         0   49.656342      7.881682e+13   0              7.881682e+13   2.1074007e+14
        83   49.656342      5.9211895e-16  0              73.105171      32.578046    
Loop time of 0.00290999 on 1 procs for 83 steps with 54 atoms

259.9% CPU use with 1 MPI tasks x 1 OpenMP threads

Minimization stats:
  Stopping criterion = quadratic factors are zero
  Energy initial, next-to-last, final = 
        78816820217475 5.9211894646675e-16 5.9211894646675e-16
  Force two-norm initial, final = 1.0656672e+18 8.4605299e-06
  Force max component initial, final = 6.1908526e+17 5.3374062e-06
  Final line search alpha, max atom move = 1 5.3374062e-06
  Iterations, force evaluations = 83 486

MPI task timing breakdown:
Section |  min time  |  avg time  |  max time  |%varavg| %total
---------------------------------------------------------------
Pair    | 0.0010525  | 0.0010525  | 0.0010525  |   0.0 | 36.17
Neigh   | 0.00049919 | 0.00049919 | 0.00049919 |   0.0 | 17.15
Comm    | 0.0009749  | 0.0009749  | 0.0009749  |   0.0 | 33.50
Output  | 0          | 0          | 0          |   0.0 |  0.00
Modify  | 0          | 0          | 0          |   0.0 |  0.00
Other   |            | 0.0003834  |            |       | 13.18

Nlocal:             54 ave          54 max          54 min
Histogram: 1 0 0 0 0 0 0 0 0 0
Nghost:            185 ave         185 max         185 min
Histogram: 1 0 0 0 0 0 0 0 0 0
Neighs:            308 ave         308 max         308 min
Histogram: 1 0 0 0 0 0 0 0 0 0

Total # of neighbors = 308
Ave neighs/atom = 5.7037037
Neighbor list builds = 16
Dangerous builds = 0

thermo_style custom step temp ke pe etotal
thermo 500
timestep 0.001
#dump    id all custom 5000 out_lan_${outfile}.lammpstrj id type radius mass xu yu zu vx vy vz fx fy fz
dump    id all custom 5000 out_lan_${outfile}.lammpstrj id type radius mass x y z
dump    id all custom 5000 out_lan_1708716654.lammpstrj id type radius mass x y z
run 100000
Generated 0 of 0 mixed pair_coeff terms from geometric mixing rule
Per MPI rank memory allocation (min/avg/max) = 4.315 | 4.315 | 4.315 Mbytes
   Step          Temp          KinEng         PotEng         TotEng    
        83   49.656342      73.105171      5.9211895e-16  73.105171    
       500   1.1835564      1.7424581      1.3560201      3.0984782    
      1000   1.1302641      1.6639999      0.7153433      2.3793432    
      1500   1.2126038      1.7852223      0.74606281     2.5312851    
      2000   1.0717455      1.5778475      0.63433248     2.21218      
      2500   1.0395311      1.5304207      0.52384402     2.0542647    
      3000   0.72613376     1.0690303      0.40769664     1.4767269    
      3500   1.1880308      1.7490453      0.38866063     2.137706     
      4000   1.0094861      1.4861878      0.44807171     1.9342595    
      4500   1.1294188      1.6627555      0.37124017     2.0339957    
      5000   0.87078333     1.2819866      0.62795644     1.909943     
      5500   1.2390037      1.8240888      0.42966438     2.2537532    
      6000   0.943882       1.3896041      0.47238542     1.8619895    
      6500   1.1346166      1.6704077      0.32629625     1.996704     
      7000   0.83106299     1.2235094      0.49261944     1.7161289    
      7500   1.05033        1.5463191      0.59941539     2.1457345    
      8000   0.91971844     1.3540299      0.39235719     1.7463871    
      8500   1.0731922      1.5799774      0.26694975     1.8469272    
      9000   0.9126607      1.3436394      0.48149652     1.8251359    
      9500   1.0723246      1.5787         0.40711909     1.9858191    
     10000   0.88630459     1.3048373      0.48444885     1.7892862    
     10500   1.1989348      1.7650984      0.55630155     2.3214       
     11000   1.0448296      1.5382213      0.42532842     1.9635497    
     11500   0.83690321     1.2321075      0.36339687     1.5955044    
     12000   1.2153473      1.7892613      0.35285983     2.1421211    
     12500   0.96257614     1.417126       0.37811644     1.7952424    
     13000   1.1384473      1.6760474      0.56466224     2.2407096    
     13500   0.90000006     1.3250001      0.40169173     1.7266918    
     14000   1.1277542      1.6603048      0.31158366     1.9718885    
     14500   1.089425       1.6038758      0.36292796     1.9668037    
     15000   1.0090772      1.4855858      0.35665699     1.8422428    
     15500   0.79617255     1.1721429      0.42021264     1.5923556    
     16000   1.0734182      1.5803101      0.47832213     2.0586322    
     16500   0.85659742     1.2611018      0.27391797     1.5350197    
     17000   1.1811908      1.7389753      0.38684602     2.1258213    
     17500   0.8823226      1.2989749      0.41347658     1.7124515    
     18000   1.1198881      1.6487241      0.39772198     2.0464461    
     18500   0.92359261     1.3597336      0.40991045     1.769644     
     19000   0.97479401     1.4351134      0.33114238     1.7662558    
     19500   0.91465327     1.3465729      0.39908343     1.7456563    
     20000   0.95933604     1.4123558      0.35024396     1.7625998    
     20500   1.0259379      1.5104085      0.47101763     1.9814262    
     21000   0.83045872     1.2226198      0.39371113     1.6163309    
     21500   0.81456796     1.1992251      0.47720274     1.6764278    
     22000   1.1138175      1.6397869      0.45189293     2.0916798    
     22500   1.0746784      1.5821654      0.64642885     2.2285942    
     23000   0.91276324     1.3437903      0.44616543     1.7899558    
     23500   0.86970182     1.2803943      0.55554301     1.8359374    
     24000   1.0320187      1.5193609      0.33730039     1.8566613    
     24500   1.0332024      1.5211035      0.41139374     1.9324972    
     25000   0.95731646     1.4093826      0.35865357     1.7680361    
     25500   0.92529749     1.3622435      0.45727936     1.8195229    
     26000   0.90346935     1.3301077      0.38193304     1.7120407    
     26500   1.2598167      1.8547301      0.28361117     2.1383413    
     27000   1.0511177      1.5474788      0.4497628      1.9972416    
     27500   0.9088883      1.3380856      0.53389533     1.8719809    
     28000   1.0657061      1.5689562      0.41091694     1.9798731    
     28500   0.95471063     1.4055462      0.30067744     1.7062236    
     29000   1.062533       1.5642847      0.33446324     1.8987479    
     29500   1.0239895      1.5075402      0.42427023     1.9318104    
     30000   1.1726377      1.7263833      0.34806887     2.0744522    
     30500   0.91016263     1.3399616      0.35341939     1.693381     
     31000   1.0466351      1.5408795      0.33099303     1.8718725    
     31500   1.0665373      1.5701799      0.28713915     1.857319     
     32000   1.095944       1.6134731      0.58055568     2.1940288    
     32500   1.1261704      1.6579732      0.40302694     2.0610001    
     33000   1.0474919      1.5421408      0.31381662     1.8559574    
     33500   1.0565396      1.5554611      0.41590569     1.9713667    
     34000   0.83029654     1.222381       0.33133659     1.5537176    
     34500   1.1113304      1.6361253      0.33802965     1.9741549    
     35000   0.97918071     1.4415716      0.29891668     1.7404883    
     35500   1.1623177      1.71119        0.26639282     1.9775828    
     36000   0.9786021      1.4407198      0.3565226      1.7972424    
     36500   1.0131292      1.4915514      0.50673397     1.9982854    
     37000   0.96841656     1.4257244      0.33122296     1.7569473    
     37500   1.2302999      1.8112749      0.32132819     2.1326031    
     38000   0.94810957     1.395828       0.42158109     1.8174091    
     38500   1.183276       1.7420452      0.39683184     2.138877     
     39000   1.1778733      1.7340913      0.36562643     2.0997177    
     39500   0.94905015     1.3972127      0.23533837     1.6325511    
     40000   1.0324142      1.5199431      0.39533632     1.9152794    
     40500   0.98262962     1.4466492      0.41317436     1.8598235    
     41000   1.1184526      1.6466107      0.35215621     1.9987669    
     41500   1.1396367      1.6777985      0.2353833      1.9131818    
     42000   0.9760453      1.4369556      0.27490675     1.7118623    
     42500   1.0263337      1.5109912      0.36619368     1.8771849    
     43000   1.0408977      1.5324327      0.24717735     1.77961      
     43500   0.95193687     1.4014626      0.29096038     1.692423     
     44000   1.0706317      1.5762077      0.46694989     2.0431576    
     44500   1.0849877      1.597343       0.43554396     2.032887     
     45000   0.92784638     1.3659961      0.42704495     1.793041     
     45500   1.0480901      1.5430216      0.24303708     1.7860587    
     46000   1.0130465      1.4914295      0.43629829     1.9277278    
     46500   0.90685136     1.3350867      0.51267306     1.8477598    
     47000   1.1454498      1.6863566      0.50923353     2.1955901    
     47500   0.90236564     1.3284827      0.3597591      1.6882418    
     48000   1.0616794      1.563028       0.46547461     2.0285026    
     48500   1.2628414      1.8591832      0.35321886     2.212402     
     49000   0.98994972     1.457426       0.37184126     1.8292672    
     49500   0.88451246     1.3021989      0.49997235     1.8021713    
     50000   1.0831063      1.5945732      0.52443573     2.1190089    
     50500   0.82513566     1.2147831      0.30724125     1.5220243    
     51000   1.0618728      1.5633127      0.52819289     2.0915056    
     51500   0.96027811     1.4137428      0.3042243      1.7179671    
     52000   1.210594       1.7822634      0.32018151     2.1024449    
     52500   1.1150879      1.6416571      0.5306956      2.1723527    
     53000   0.98134407     1.4447565      0.47694521     1.9217018    
     53500   1.0035583      1.4774608      0.38642956     1.8638904    
     54000   1.0222141      1.5049263      0.3756978      1.8806241    
     54500   1.3059938      1.9227132      0.38986164     2.3125748    
     55000   0.94128022     1.3857737      0.38572049     1.7714941    
     55500   0.985361       1.4506704      0.42191892     1.8725893    
     56000   1.0280071      1.5134549      0.3148316      1.8282865    
     56500   1.1804711      1.7379158      0.34762353     2.0855393    
     57000   0.84983885     1.2511516      0.28689335     1.538045     
     57500   1.0884998      1.6025135      0.32710471     1.9296183    
     58000   1.0488231      1.5441007      0.4406564      1.9847571    
     58500   1.0924149      1.6082775      0.36869728     1.9769748    
     59000   1.109821       1.6339032      0.21178869     1.8456919    
     59500   1.0407438      1.5322061      0.32929333     1.8614995    
     60000   1.0071325      1.4827229      0.45055281     1.9332757    
     60500   1.0827264      1.5940138      0.28655866     1.8805725    
     61000   0.88926973     1.3092027      0.60328269     1.9124853    
     61500   0.94699791     1.3941914      0.30567468     1.699866     
     62000   1.2006011      1.7675516      0.35379486     2.1213465    
     62500   0.88497237     1.302876       0.30638199     1.609258     
     63000   0.93953418     1.3832031      0.39383143     1.7770345    
     63500   1.0325426      1.5201322      0.32516851     1.8453007    
     64000   1.2474563      1.8365329      0.42336147     2.2598943    
     64500   0.93113291     1.3708346      0.40341346     1.774248     
     65000   0.94993297     1.3985124      0.49348464     1.8919971    
     65500   1.0243741      1.5081063      0.3509429      1.8590492    
     66000   1.0923311      1.6081541      0.54120249     2.1493566    
     66500   0.96681447     1.4233657      0.35462234     1.7779881    
     67000   0.98931212     1.4564873      0.4841609      1.9406482    
     67500   1.1309203      1.664966       0.38445117     2.0494172    
     68000   1.1911284      1.7536058      0.49237791     2.2459837    
     68500   1.0594259      1.5597103      0.32989562     1.8896059    
     69000   0.99611596     1.4665041      0.49801865     1.9645227    
     69500   1.0794579      1.589202       0.41390447     2.0031064    
     70000   1.2258245      1.804686       0.52960882     2.3342948    
     70500   1.1195451      1.6482192      0.48701945     2.1352386    
     71000   1.0223176      1.5050787      0.4362374      1.9413161    
     71500   1.0352346      1.5240953      0.45003079     1.9741261    
     72000   0.99889961     1.4706022      0.34779244     1.8183947    
     72500   1.1014296      1.6215491      0.4230744      2.0446235    
     73000   0.90293046     1.3293143      0.35730988     1.6866242    
     73500   0.98243014     1.4463555      0.42066347     1.867019     
     74000   1.0240973      1.5076988      0.31791316     1.8256119    
     74500   1.2378444      1.822382       0.35068473     2.1730668    
     75000   0.9130921      1.3442745      0.37232316     1.7165976    
     75500   1.0256962      1.5100528      0.31313255     1.8231853    
     76000   1.224386       1.8025683      0.25028684     2.0528551    
     76500   0.96056917     1.4141713      0.61043274     2.024604     
     77000   0.86937837     1.2799182      0.32253442     1.6024526    
     77500   0.75898815     1.1173992      0.2822503      1.3996495    
     78000   1.0366305      1.5261504      0.44489507     1.9710455    
     78500   0.87095243     1.2822355      0.43070321     1.7129387    
     79000   1.1631949      1.7124814      0.36122345     2.0737048    
     79500   0.87127154     1.2827053      0.49916561     1.7818709    
     80000   1.0949942      1.6120748      0.42751535     2.0395902    
     80500   1.1149689      1.641482       0.33373185     1.9752138    
     81000   0.93834863     1.3814577      0.34603812     1.7274958    
     81500   1.0202654      1.5020574      0.44094594     1.9430033    
     82000   0.85166023     1.2538331      0.33744913     1.5912823    
     82500   0.95533365     1.4064634      0.2125897      1.6190531    
     83000   1.0410124      1.5326016      0.3225134      1.855115     
     83500   1.0961699      1.6138056      0.217192       1.8309976    
     84000   1.135299       1.6714124      0.41244983     2.0838623    
     84500   0.95977107     1.4129963      0.41991141     1.8329077    
     85000   0.93533824     1.3770257      0.23792591     1.6149516    
     85500   0.90983631     1.3394812      0.30661139     1.6460926    
     86000   0.8857614      1.3040376      0.29157486     1.5956125    
     86500   1.0049412      1.4794968      0.34717206     1.8266688    
     87000   0.86153118     1.2683653      0.3765838      1.6449491    
     87500   1.1327081      1.6675981      0.39773479     2.0653329    
     88000   0.95895447     1.4117941      0.42104998     1.8328441    
     88500   1.0609632      1.5619736      0.44281998     2.0047935    
     89000   1.1042214      1.6256592      0.33483248     1.9604917    
     89500   1.0261227      1.5106807      0.47674612     1.9874268    
     90000   0.92904709     1.3677638      0.52327062     1.8910344    
     90500   0.8580802      1.2632847      0.4930435      1.7563282    
     91000   1.1102154      1.6344837      0.4204637      2.0549474    
     91500   1.0722936      1.5786544      0.42744184     2.0060962    
     92000   1.1112841      1.6360571      0.48287405     2.1189312    
     92500   0.95970078     1.4128928      0.34534983     1.7582426    
     93000   0.96437914     1.4197804      0.36465485     1.7844352    
     93500   0.92996535     1.3691157      0.52498208     1.8940977    
     94000   1.1367247      1.6735114      0.36056871     2.0340801    
     94500   1.0894136      1.603859       0.41855199     2.022411     
     95000   0.88242309     1.2991229      0.41107999     1.7102029    
     95500   0.97728447     1.4387799      0.42401279     1.8627927    
     96000   1.1188456      1.6471893      0.42223021     2.0694196    
     96500   1.0338568      1.522067       0.44394222     1.9660092    
     97000   1.0742495      1.5815339      0.46395925     2.0454932    
     97500   1.1043214      1.6258064      0.39335086     2.0191573    
     98000   0.99379309     1.4630843      0.39970055     1.8627848    
     98500   1.0143401      1.493334       0.36432592     1.8576599    
     99000   0.8110487      1.1940439      0.28902235     1.4830663    
     99500   0.96553427     1.421481       0.46282681     1.8843078    
    100000   1.0463622      1.5404777      0.39551076     1.9359884    
    100083   1.0774831      1.5862946      0.40062619     1.9869208    
Loop time of 0.580415 on 1 procs for 100000 steps with 54 atoms

Performance: 14885898.220 tau/day, 172290.489 timesteps/s, 9.304 Matom-step/s
136.4% CPU use with 1 MPI tasks x 1 OpenMP threads

MPI task timing breakdown:
Section |  min time  |  avg time  |  max time  |%varavg| %total
---------------------------------------------------------------
Pair    | 0.11086    | 0.11086    | 0.11086    |   0.0 | 19.10
Neigh   | 0.0079396  | 0.0079396  | 0.0079396  |   0.0 |  1.37
Comm    | 0.14356    | 0.14356    | 0.14356    |   0.0 | 24.73
Output  | 0.0034726  | 0.0034726  | 0.0034726  |   0.0 |  0.60
Modify  | 0.29312    | 0.29312    | 0.29312    |   0.0 | 50.50
Other   |            | 0.02146    |            |       |  3.70

Nlocal:             54 ave          54 max          54 min
Histogram: 1 0 0 0 0 0 0 0 0 0
Nghost:            204 ave         204 max         204 min
Histogram: 1 0 0 0 0 0 0 0 0 0
Neighs:            334 ave         334 max         334 min
Histogram: 1 0 0 0 0 0 0 0 0 0

Total # of neighbors = 334
Ave neighs/atom = 6.1851852
Neighbor list builds = 249
Dangerous builds = 0

write_data data.${outfile} nocoeff nofix
write_data data.1708716654 nocoeff nofix
System init for write_data ...
Generated 0 of 0 mixed pair_coeff terms from geometric mixing rule
Total wall time: 0:00:00
