LAMMPS (21 Nov 2023)
OMP_NUM_THREADS environment is not set. Defaulting to 1 thread. (src/comm.cpp:98)
  using 1 OpenMP thread(s) per MPI task
###variable outfile string L15.17
###variable L equal 15.17

units lj

newton off
atom_style      sphere
boundary        p p p
comm_modify     mode single vel yes


region      boxid block 0.0     $L      0.0       $L      0.0       $L
region      boxid block 0.0     4.322895918727637      0.0       $L      0.0       $L
region      boxid block 0.0     4.322895918727637      0.0       4.322895918727637      0.0       $L
region      boxid block 0.0     4.322895918727637      0.0       4.322895918727637      0.0       4.322895918727637
#create_box  1 boxid
include create_box.in
create_box 1 boxid
Created orthogonal box = (0 0 0) to (4.3228959 4.3228959 4.3228959)
  1 by 1 by 1 MPI processor grid


######
include create_np.in
create_atoms 1 random 54 2160 boxid
Created 54 atoms
  using lattice units in orthogonal box = (0 0 0) to (4.3228959 4.3228959 4.3228959)
  create_atoms CPU = 0.001 seconds
velocity    all create 1.0 87287 dist gaussian

#####
include particles.in
set type 1 diameter 1.0
Setting atom values ...
  54 settings made for diameter
set type 1 mass 26.0
Setting atom values ...
  54 settings made for mass

###
fix 1 all langevin 1.0 1.0 0.1 12345
fix 2 all nve/sphere

###
pair_style lj/cut 1.
include pots_lj_lan.in
pair_coeff 1 1 10.0 1.0 1.122462048309373
pair_modify shift yes



minimize          1.0e-4 1.0e-6 1000 1000
Generated 0 of 0 mixed pair_coeff terms from geometric mixing rule
Neighbor list info ...
  update: every = 1 steps, delay = 0 steps, check = yes
  max neighbors/atom: 2000, page size: 100000
  master list distance cutoff = 1.422462
  ghost atom cutoff = 1.422462
  binsize = 0.71123102, bins = 7 7 7
  1 neighbor lists, perpetual/occasional/extra = 1 0 0
  (1) pair lj/cut, perpetual
      attributes: half, newton off
      pair build: half/bin/newtoff
      stencil: full/bin/3d
      bin: standard
Per MPI rank memory allocation (min/avg/max) = 5.44 | 5.44 | 5.44 Mbytes
   Step          Temp          E_pair         E_mol          TotEng         Press     
         0   49.656342      3.4473089e+09  0              3.447309e+09   9.2175084e+09
        40   49.656342      5.9650674e-08  0              73.105171      32.578419    
Loop time of 0.00129792 on 1 procs for 40 steps with 54 atoms

159.7% CPU use with 1 MPI tasks x 1 OpenMP threads

Minimization stats:
  Stopping criterion = quadratic factors are zero
  Energy initial, next-to-last, final = 
      3447308945.35424 5.96506741614546e-08 5.96506741614546e-08
  Force two-norm initial, final = 1.9348035e+13 0.085865088
  Force max component initial, final = 1.0150347e+13 0.057793439
  Final line search alpha, max atom move = 0.0625 0.00361209
  Iterations, force evaluations = 40 123

MPI task timing breakdown:
Section |  min time  |  avg time  |  max time  |%varavg| %total
---------------------------------------------------------------
Pair    | 0.00035599 | 0.00035599 | 0.00035599 |   0.0 | 27.43
Neigh   | 0.00040581 | 0.00040581 | 0.00040581 |   0.0 | 31.27
Comm    | 0.00033965 | 0.00033965 | 0.00033965 |   0.0 | 26.17
Output  | 0          | 0          | 0          |   0.0 |  0.00
Modify  | 0          | 0          | 0          |   0.0 |  0.00
Other   |            | 0.0001965  |            |       | 15.14

Nlocal:             54 ave          54 max          54 min
Histogram: 1 0 0 0 0 0 0 0 0 0
Nghost:            194 ave         194 max         194 min
Histogram: 1 0 0 0 0 0 0 0 0 0
Neighs:            317 ave         317 max         317 min
Histogram: 1 0 0 0 0 0 0 0 0 0

Total # of neighbors = 317
Ave neighs/atom = 5.8703704
Neighbor list builds = 11
Dangerous builds = 0

thermo_style custom step temp ke pe etotal
thermo 500
timestep 0.001
#dump    id all custom 5000 out_lan_${outfile}.lammpstrj id type radius mass xu yu zu vx vy vz fx fy fz
dump    id all custom 5000 out_lan_${outfile}.lammpstrj id type radius mass x y z
dump    id all custom 5000 out_lan_1708801777.lammpstrj id type radius mass x y z
run 100000
Generated 0 of 0 mixed pair_coeff terms from geometric mixing rule
Per MPI rank memory allocation (min/avg/max) = 4.315 | 4.315 | 4.315 Mbytes
   Step          Temp          KinEng         PotEng         TotEng    
        40   49.656342      73.105171      5.9650674e-08  73.105171    
       500   1.0500267      1.5458726      0.937281       2.4831536    
      1000   1.0318173      1.5190644      0.57143068     2.0904951    
      1500   1.0807365      1.5910843      0.5586335      2.1497178    
      2000   1.1535396      1.6982666      0.45674594     2.1550125    
      2500   1.1024567      1.6230613      0.37607921     1.9991405    
      3000   0.93156857     1.3714759      0.40609251     1.7775685    
      3500   1.0819906      1.5929306      0.46284747     2.055778     
      4000   0.99295413     1.4618491      0.4495671      1.9114162    
      4500   1.0199671      1.5016183      0.53494126     2.0365595    
      5000   1.1016308      1.6218453      0.4838106      2.1056559    
      5500   0.9997663      1.4718782      0.39334295     1.8652211    
      6000   0.99016204     1.4577386      0.40773992     1.8654785    
      6500   1.0570525      1.5562162      0.44340171     1.9996179    
      7000   1.0593107      1.5595408      0.57311253     2.1326533    
      7500   0.93004399     1.3692314      0.58176744     1.9509989    
      8000   1.1002322      1.6197864      0.41938366     2.03917      
      8500   0.85548931     1.2594704      0.55367501     1.8131454    
      9000   1.0183341      1.499214       0.50440334     2.0036174    
      9500   0.91452878     1.3463896      0.38005315     1.7264427    
     10000   1.1363865      1.6730135      0.41278186     2.0857954    
     10500   1.1205944      1.649764       0.40601169     2.0557756    
     11000   0.99158139     1.4598282      0.61518955     2.0750177    
     11500   0.80502807     1.1851802      0.31941999     1.5046002    
     12000   1.0732998      1.5801358      0.41985712     1.9999929    
     12500   1.095681       1.613086       0.5019603      2.1150463    
     13000   0.92553303     1.3625903      0.46826193     1.8308522    
     13500   0.98489069     1.449978       0.47944345     1.9294214    
     14000   0.91803257     1.3515479      0.46483963     1.8163876    
     14500   0.99555547     1.4656789      0.58549567     2.0511746    
     15000   1.2312855      1.8127258      0.42535437     2.2380802    
     15500   0.99555576     1.4656793      0.41912773     1.884807     
     16000   0.99136137     1.4595042      0.40335092     1.8628552    
     16500   0.73069278     1.0757422      0.41907913     1.4948213    
     17000   1.0242347      1.5079011      0.61188127     2.1197824    
     17500   1.0270576      1.5120571      0.54576963     2.0578267    
     18000   0.84200923     1.2396247      0.43224332     1.671868     
     18500   1.0457845      1.5396271      0.47578341     2.0154105    
     19000   0.90543669     1.333004       0.40216394     1.735168     
     19500   0.9978366      1.4690372      0.38158324     1.8506205    
     20000   1.0030009      1.4766402      0.41988254     1.8965227    
     20500   0.94909487     1.3972786      0.42205168     1.8193302    
     21000   0.94014077     1.3840961      0.44223401     1.8263301    
     21500   0.97801376     1.4398536      0.3658884      1.805742     
     22000   1.0560474      1.5547365      0.49288609     2.0476226    
     22500   1.1072735      1.6301527      0.47899552     2.1091482    
     23000   0.85596985     1.2601778      0.4152617      1.6754395    
     23500   0.94535727     1.391776       0.37572859     1.7675046    
     24000   1.0417589      1.5337007      0.51813967     2.0518403    
     24500   1.1038877      1.6251679      0.35883785     1.9840058    
     25000   0.86091834     1.2674631      0.28553556     1.5529987    
     25500   0.95988297     1.413161       0.33599765     1.7491587    
     26000   1.0472608      1.5418006      0.45180215     1.9936028    
     26500   1.0141602      1.4930691      0.44603665     1.9391058    
     27000   1.1157077      1.6425697      0.43292651     2.0754962    
     27500   0.96379944     1.418927       0.37140801     1.790335     
     28000   1.1177803      1.6456209      0.44033585     2.0859568    
     28500   1.229785       1.8105168      0.34594355     2.1564603    
     29000   1.1014904      1.6216386      0.31271489     1.9343535    
     29500   0.9356184      1.3774382      0.60494563     1.9823838    
     30000   1.1321342      1.6667531      0.41584982     2.0826029    
     30500   1.0982382      1.6168507      0.45292074     2.0697714    
     31000   1.0708955      1.5765962      0.40683428     1.9834304    
     31500   1.02717        1.5122225      0.20577548     1.7179979    
     32000   0.98737911     1.4536415      0.43860301     1.8922445    
     32500   1.0580298      1.557655       0.37673622     1.9343912    
     33000   0.92022473     1.3547753      0.4907338      1.8455091    
     33500   1.0471625      1.5416559      0.38855638     1.9302123    
     34000   1.0330443      1.5208708      0.4064715      1.9273423    
     34500   1.1264421      1.6583731      0.25998979     1.9183628    
     35000   1.1439293      1.6841181      0.23068971     1.9148078    
     35500   0.95260114     1.4024406      0.69268094     2.0951215    
     36000   1.1153118      1.6419869      0.46467233     2.1066592    
     36500   1.0922338      1.6080109      0.24278828     1.8507992    
     37000   1.1505338      1.6938414      0.39449619     2.0883376    
     37500   0.91951386     1.3537287      0.27201258     1.6257413    
     38000   1.0329698      1.5207611      0.39926743     1.9200286    
     38500   0.90307894     1.3295329      0.40230915     1.731842     
     39000   1.1697353      1.7221103      0.41963996     2.1417502    
     39500   0.9998521      1.4720045      0.39421885     1.8662233    
     40000   0.8780604      1.2927         0.42454548     1.7172455    
     40500   1.0342435      1.5226363      0.40658654     1.9292228    
     41000   1.1174247      1.6450975      0.42092941     2.0660269    
     41500   0.94694668     1.3941159      0.4169295      1.8110454    
     42000   0.92671169     1.3643255      0.5205089      1.8848344    
     42500   1.1921379      1.7550919      0.45604548     2.2111374    
     43000   1.0598133      1.5602807      0.44045055     2.0007312    
     43500   1.0067873      1.4822146      0.37367142     1.855886     
     44000   1.362302       2.0056113      0.4469999      2.4526112    
     44500   0.95850911     1.4111384      0.5163869      1.9275253    
     45000   0.90762555     1.3362265      0.46035275     1.7965793    
     45500   1.0426663      1.5350365      0.413529       1.9485655    
     46000   0.92422907     1.3606706      0.53494971     1.8956203    
     46500   1.1449192      1.6855754      0.38950113     2.0750766    
     47000   1.0135101      1.4921121      0.52673726     2.0188493    
     47500   1.0842726      1.5962903      0.45264528     2.0489355    
     48000   1.0523254      1.5492568      0.42155151     1.9708083    
     48500   1.0943474      1.6111226      0.28991368     1.9010363    
     49000   1.2138665      1.7870813      0.31645326     2.1035345    
     49500   0.96105979     1.4148936      0.40174131     1.8166349    
     50000   0.96419491     1.4195092      0.23602974     1.6555389    
     50500   1.0052608      1.4799673      0.33501355     1.8149808    
     51000   0.91153144     1.3419768      0.33770196     1.6796788    
     51500   0.98585916     1.4514038      0.13914605     1.5905498    
     52000   1.1124074      1.6377108      0.25406041     1.8917713    
     52500   1.0830997      1.5945635      0.32888757     1.9234511    
     53000   1.0533739      1.5508004      0.3206809      1.8714813    
     53500   0.80507912     1.1852554      0.21887861     1.404134     
     54000   1.0416184      1.5334938      0.2680856      1.8015794    
     54500   1.1925572      1.7557092      0.41324456     2.1689538    
     55000   0.88510778     1.3030753      0.36487368     1.667949     
     55500   1.0980153      1.6165226      0.27721884     1.8937414    
     56000   0.85569423     1.2597721      0.44973307     1.7095051    
     56500   0.93755324     1.3802867      0.43301507     1.8133018    
     57000   0.98150355     1.4449913      0.27867867     1.72367      
     57500   0.89009363     1.3104156      0.41835345     1.7287691    
     58000   1.0348796      1.5235728      0.38090551     1.9044783    
     58500   1.1850106      1.744599       0.40737194     2.1519709    
     59000   1.2012195      1.768462       0.26120046     2.0296625    
     59500   1.2135579      1.7866268      0.25747139     2.0440982    
     60000   0.92915718     1.3679258      0.35081188     1.7187377    
     60500   0.87709099     1.2912728      0.52352154     1.8147944    
     61000   1.1040654      1.6254296      0.26138053     1.8868101    
     61500   0.83972348     1.2362596      0.23555128     1.4718108    
     62000   1.0278064      1.5131594      0.38417194     1.8973313    
     62500   0.99119867     1.4592647      0.48921785     1.9484826    
     63000   1.020201       1.5019626      0.41614543     1.918108     
     63500   1.0066207      1.4819693      0.34548209     1.8274514    
     64000   0.9957006      1.4658926      0.44372203     1.9096146    
     64500   0.90030577     1.3254502      0.47535426     1.8008044    
     65000   1.0439364      1.5369064      0.4750366      2.011943     
     65500   1.0514161      1.5479181      0.32276047     1.8706786    
     66000   1.0407527      1.5322192      0.41197879     1.944198     
     66500   0.98964598     1.4569788      0.25191975     1.7088985    
     67000   0.97389885     1.4337955      0.46444647     1.898242     
     67500   0.87516693     1.2884402      0.24010389     1.5285441    
     68000   1.1216322      1.6512919      0.45270634     2.1039982    
     68500   1.0577314      1.5572157      0.25972841     1.8169441    
     69000   1.059435       1.5597238      0.52599772     2.0857215    
     69500   0.94667573     1.3937171      0.48026802     1.8739851    
     70000   1.1385071      1.6761355      0.53380219     2.2099377    
     70500   1.2514428      1.842402       0.43515134     2.2775533    
     71000   0.81157569     1.1948198      0.49385861     1.6886784    
     71500   1.0590586      1.5591696      0.50870309     2.0678727    
     72000   0.87506844     1.2882952      0.46647244     1.7547676    
     72500   1.1741607      1.7286255      0.38978142     2.1184069    
     73000   0.98763705     1.4540212      0.37553006     1.8295513    
     73500   1.0750908      1.5827726      0.44705715     2.0298297    
     74000   1.0294565      1.5155888      0.34970515     1.865294     
     74500   1.1585103      1.7055846      0.4968637      2.2024483    
     75000   0.96420351     1.4195218      0.35530098     1.7748228    
     75500   1.2881873      1.8964979      0.26655419     2.1630521    
     76000   1.3696425      2.0164181      0.28380999     2.3002281    
     76500   0.97427156     1.4343442      0.32118968     1.7555339    
     77000   1.0654193      1.568534       0.34143289     1.9099669    
     77500   1.1493128      1.6920438      0.37219025     2.064234     
     78000   1.1124851      1.6378252      0.3146428      1.952468     
     78500   0.8934159      1.3153067      0.36062191     1.6759286    
     79000   1.0378166      1.5278966      0.50314407     2.0310407    
     79500   0.9127003      1.3436977      0.41084783     1.7545455    
     80000   1.1119039      1.6369697      0.38680007     2.0237697    
     80500   1.037269       1.5270905      0.33757138     1.8646619    
     81000   0.91868013     1.3525013      0.3631852      1.7156865    
     81500   1.1732628      1.7273036      0.32675006     2.0540537    
     82000   0.90742408     1.3359299      0.39932277     1.7352527    
     82500   1.009827       1.4866898      0.3302813      1.8169711    
     83000   0.91352738     1.3449153      0.2669685      1.6118838    
     83500   0.99178998     1.4601352      0.3284971      1.7886323    
     84000   1.0452055      1.5387747      0.38125405     1.9200288    
     84500   0.83815721     1.2339537      0.36507302     1.5990267    
     85000   0.86055453     1.2669275      0.23219316     1.4991207    
     85500   1.0004374      1.4728661      0.43762075     1.9104869    
     86000   0.97451574     1.4347037      0.24135823     1.676062     
     86500   0.80440437     1.184262       0.39305629     1.5773183    
     87000   1.0268458      1.5117451      0.1864411      1.6981862    
     87500   1.2269576      1.8063543      0.28289139     2.0892457    
     88000   1.1110479      1.6357094      0.38634858     2.0220579    
     88500   1.0898524      1.604505       0.49300817     2.0975131    
     89000   0.92498147     1.3617783      0.50380643     1.8655847    
     89500   1.0615598      1.562852       0.23795502     1.800807     
     90000   0.93365474     1.3745473      0.31690602     1.6914533    
     90500   0.98168235     1.4452546      0.27354342     1.718798     
     91000   1.04687        1.5412253      0.29141122     1.8326365    
     91500   1.0336753      1.5217997      0.44381856     1.9656183    
     92000   1.1143969      1.6406399      0.37528981     2.0159297    
     92500   0.97538731     1.4359869      0.41477065     1.8507575    
     93000   0.86900492     1.2793684      0.52242028     1.8017886    
     93500   1.1426364      1.6822147      0.34583762     2.0280524    
     94000   1.0226175      1.5055202      0.43697298     1.9424932    
     94500   1.098478       1.6172037      0.33169663     1.9489003    
     95000   1.0220085      1.5046237      0.45036162     1.9549853    
     95500   1.1285457      1.66147        0.37429093     2.035761     
     96000   1.1828112      1.7413609      0.40048328     2.1418442    
     96500   0.90630153     1.3342773      0.32078705     1.6550643    
     97000   0.98241265     1.4463297      0.36414957     1.8104793    
     97500   1.1457777      1.6868395      0.58449995     2.2713394    
     98000   1.072436       1.5788642      0.37087295     1.9497371    
     98500   1.1182431      1.6463024      0.31157533     1.9578777    
     99000   0.99343145     1.4625519      0.32099298     1.7835448    
     99500   1.0414227      1.5332056      0.22542071     1.7586263    
    100000   1.1078904      1.6310608      0.28282696     1.9138878    
    100040   1.1185511      1.6467557      0.24651389     1.8932696    
Loop time of 0.584747 on 1 procs for 100000 steps with 54 atoms

Performance: 14775632.710 tau/day, 171014.267 timesteps/s, 9.235 Matom-step/s
144.6% CPU use with 1 MPI tasks x 1 OpenMP threads

MPI task timing breakdown:
Section |  min time  |  avg time  |  max time  |%varavg| %total
---------------------------------------------------------------
Pair    | 0.11027    | 0.11027    | 0.11027    |   0.0 | 18.86
Neigh   | 0.0079648  | 0.0079648  | 0.0079648  |   0.0 |  1.36
Comm    | 0.14391    | 0.14391    | 0.14391    |   0.0 | 24.61
Output  | 0.0030526  | 0.0030526  | 0.0030526  |   0.0 |  0.52
Modify  | 0.29789    | 0.29789    | 0.29789    |   0.0 | 50.94
Other   |            | 0.02167    |            |       |  3.71

Nlocal:             54 ave          54 max          54 min
Histogram: 1 0 0 0 0 0 0 0 0 0
Nghost:            203 ave         203 max         203 min
Histogram: 1 0 0 0 0 0 0 0 0 0
Neighs:            327 ave         327 max         327 min
Histogram: 1 0 0 0 0 0 0 0 0 0

Total # of neighbors = 327
Ave neighs/atom = 6.0555556
Neighbor list builds = 245
Dangerous builds = 0

write_data data.${outfile} nocoeff nofix
write_data data.1708801777 nocoeff nofix
System init for write_data ...
Generated 0 of 0 mixed pair_coeff terms from geometric mixing rule
Total wall time: 0:00:00
