LAMMPS (21 Nov 2023)
OMP_NUM_THREADS environment is not set. Defaulting to 1 thread. (src/comm.cpp:98)
  using 1 OpenMP thread(s) per MPI task
###variable outfile string L15.17
###variable L equal 15.17

units lj

newton off
atom_style      sphere
boundary        p p p
comm_modify     mode single vel yes


region      boxid block 0.0     $L      0.0       $L      0.0       $L
region      boxid block 0.0     10.41879415735609      0.0       $L      0.0       $L
region      boxid block 0.0     10.41879415735609      0.0       10.41879415735609      0.0       $L
region      boxid block 0.0     10.41879415735609      0.0       10.41879415735609      0.0       10.41879415735609
#create_box  1 boxid
include create_box.in
create_box 1 boxid
Created orthogonal box = (0 0 0) to (10.418794 10.418794 10.418794)
  1 by 1 by 1 MPI processor grid


######
include create_np.in
create_atoms 1 random 108 7117 boxid
Created 108 atoms
  using lattice units in orthogonal box = (0 0 0) to (10.418794 10.418794 10.418794)
  create_atoms CPU = 0.001 seconds
velocity    all create 1.0 87287 dist gaussian

#####
include particles.in
set type 1 diameter 1.0
Setting atom values ...
  108 settings made for diameter
set type 1 mass 26.0
Setting atom values ...
  108 settings made for mass

###
fix 1 all langevin 1.0 1.0 0.1 12345
fix 2 all nve/sphere

###
pair_style lj/cut 1.
include pots_lj_lan.in
pair_coeff 1 1 10.0 1.0 1.122462048309373
pair_modify shift yes



minimize          1.0e-4 1.0e-6 1000 1000
Generated 0 of 0 mixed pair_coeff terms from geometric mixing rule
Neighbor list info ...
  update: every = 1 steps, delay = 0 steps, check = yes
  max neighbors/atom: 2000, page size: 100000
  master list distance cutoff = 1.422462
  ghost atom cutoff = 1.422462
  binsize = 0.71123102, bins = 15 15 15
  1 neighbor lists, perpetual/occasional/extra = 1 0 0
  (1) pair lj/cut, perpetual
      attributes: half, newton off
      pair build: half/bin/newtoff
      stencil: full/bin/3d
      bin: standard
Per MPI rank memory allocation (min/avg/max) = 5.463 | 5.463 | 5.463 Mbytes
   Step          Temp          E_pair         E_mol          TotEng         Press     
         0   49.656342      38746918       0              38746991       14801019     
        20   49.656342      2.3185248e-07  0              73.794842      4.6979816    
Loop time of 0.000693693 on 1 procs for 20 steps with 108 atoms

232.5% CPU use with 1 MPI tasks x 1 OpenMP threads

Minimization stats:
  Stopping criterion = quadratic factors are zero
  Energy initial, next-to-last, final = 
      38746917.7014572 2.31852476805938e-07 2.31852476805938e-07
  Force two-norm initial, final = 3.3046756e+11 0.23968644
  Force max component initial, final = 2.1189646e+11 0.13434436
  Final line search alpha, max atom move = 0.011630559 0.0015625
  Iterations, force evaluations = 20 70

MPI task timing breakdown:
Section |  min time  |  avg time  |  max time  |%varavg| %total
---------------------------------------------------------------
Pair    | 6.7089e-05 | 6.7089e-05 | 6.7089e-05 |   0.0 |  9.67
Neigh   | 0.00033876 | 0.00033876 | 0.00033876 |   0.0 | 48.83
Comm    | 0.00010909 | 0.00010909 | 0.00010909 |   0.0 | 15.73
Output  | 0          | 0          | 0          |   0.0 |  0.00
Modify  | 0          | 0          | 0          |   0.0 |  0.00
Other   |            | 0.0001788  |            |       | 25.77

Nlocal:            108 ave         108 max         108 min
Histogram: 1 0 0 0 0 0 0 0 0 0
Nghost:            103 ave         103 max         103 min
Histogram: 1 0 0 0 0 0 0 0 0 0
Neighs:             83 ave          83 max          83 min
Histogram: 1 0 0 0 0 0 0 0 0 0

Total # of neighbors = 83
Ave neighs/atom = 0.76851852
Neighbor list builds = 9
Dangerous builds = 0

thermo_style custom step temp ke pe etotal
thermo 500
timestep 0.001
#dump    id all custom 5000 out_lan_${outfile}.lammpstrj id type radius mass xu yu zu vx vy vz fx fy fz
dump    id all custom 5000 out_lan_${outfile}.lammpstrj id type radius mass x y z
dump    id all custom 5000 out_lan_1708803117.lammpstrj id type radius mass x y z
run 100000
Generated 0 of 0 mixed pair_coeff terms from geometric mixing rule
Per MPI rank memory allocation (min/avg/max) = 4.338 | 4.338 | 4.338 Mbytes
   Step          Temp          KinEng         PotEng         TotEng    
        20   49.656342      73.794842      2.3185248e-07  73.794842    
       500   1.0690023      1.5886562      0.032067071    1.6207233    
      1000   1.0195736      1.5151996      0.0015524723   1.5167521    
      1500   1.0230912      1.5204273      0.0071547546   1.527582     
      2000   0.95760493     1.4231073      0.0043853248   1.4274926    
      2500   1.148602       1.7069502      0.013126274    1.7200765    
      3000   0.89934509     1.3365267      0.024565032    1.3610918    
      3500   1.0923791      1.6233967      0.023424394    1.6468211    
      4000   1.0225597      1.5196373      0.0062641964   1.5259015    
      4500   1.0280085      1.5277348      0.010457332    1.5381922    
      5000   1.0169374      1.511282       0.0074075132   1.5186895    
      5500   1.0423489      1.5490463      0.083437962    1.6324843    
      6000   0.94734818     1.4078647      0.038125217    1.4459899    
      6500   1.0363947      1.5401976      0.018637191    1.5588348    
      7000   1.0020603      1.489173       0.015160404    1.5043334    
      7500   0.98141805     1.4584963      0.022498191    1.4809945    
      8000   1.0607097      1.5763325      0.024086848    1.6004193    
      8500   1.1082035      1.6469136      0.03411743     1.681031     
      9000   0.95124293     1.4136527      0.018121661    1.4317743    
      9500   1.0359638      1.5395573      0.031278162    1.5708354    
     10000   1.0423857      1.549101       0.021813422    1.5709144    
     10500   0.96447426     1.4333159      0.011134664    1.4444506    
     11000   0.99488609     1.4785113      0.010285322    1.4887966    
     11500   0.89399338     1.3285735      0.0031778982   1.3317514    
     12000   0.97475996     1.4486016      0.0023875397   1.4509892    
     12500   0.87817195     1.3050611      0.015225251    1.3202863    
     13000   0.97849746     1.4541559      0.00055531798  1.4547113    
     13500   1.0724955      1.5938475      0.085399277    1.6792468    
     14000   1.0520965      1.5635323      0.019296222    1.5828285    
     14500   0.99455172     1.4780144      0.0039172037   1.4819316    
     15000   1.0774665      1.601235       0.013452342    1.6146873    
     15500   0.9444439      1.4035486      0.037033484    1.4405821    
     16000   0.93094519     1.383488       0.02385696     1.4073449    
     16500   0.9971712      1.4819072      0.0021313024   1.4840385    
     17000   0.98907884     1.4698811      0.01405122     1.4839323    
     17500   0.96785153     1.4383349      0.0051411619   1.4434761    
     18000   1.0488576      1.558719       0.0063538021   1.5650728    
     18500   1.0694625      1.5893401      0.015901945    1.605242     
     19000   0.95795206     1.4236232      0.016109728    1.4397329    
     19500   1.1110272      1.6511098      0.0068489141   1.6579587    
     20000   1.0051689      1.4937926      0.0153228      1.5091154    
     20500   1.1028762      1.6389966      0.012985416    1.651982     
     21000   1.0440237      1.5515352      0.0052662176   1.5568014    
     21500   0.97666706     1.4514358      0.012994029    1.4644298    
     22000   1.0771511      1.6007662      0.0051129639   1.6058792    
     22500   0.89836428     1.3350691      0.019437225    1.3545064    
     23000   1.0742232      1.596415       0.035441989    1.631857     
     23500   1.0124971      1.5046832      0.021730659    1.5264138    
     24000   1.0181695      1.513113       0.015395072    1.5285081    
     24500   0.97666821     1.4514375      0.0042692637   1.4557067    
     25000   0.92254057     1.3709978      0.059130843    1.4301286    
     25500   0.95767738     1.423215       0.0028304459   1.4260454    
     26000   0.97713966     1.4521381      0.0074321739   1.4595703    
     26500   1.0284878      1.5284471      0.0023862881   1.5308334    
     27000   0.98221454     1.4596799      0.0056190668   1.465299     
     27500   0.99731174     1.4821161      0.04093204     1.5230481    
     28000   1.0011059      1.4877546      0.0031337428   1.4908883    
     28500   1.037228       1.5414361      0.00490307     1.5463391    
     29000   1.0784602      1.6027117      0.0040531351   1.6067649    
     29500   1.1186378      1.6624201      0.0037067505   1.6661268    
     30000   1.0675076      1.5864348      0.033870335    1.6203052    
     30500   1.0110146      1.5024801      0.0016321071   1.5041122    
     31000   1.0129205      1.5053124      0.0089850407   1.5142974    
     31500   0.96440744     1.4332166      0.00052514727  1.4337418    
     32000   1.0599856      1.5752564      0.0019656067   1.5772221    
     32500   0.9883353      1.4687761      0.00025595645  1.469032     
     33000   1.1070214      1.6451567      0.00049253765  1.6456493    
     33500   1.0535368      1.5656728      0.016326807    1.5819996    
     34000   0.95492849     1.4191298      0.0019275563   1.4210574    
     34500   1.1070878      1.6452555      0.0021270711   1.6473825    
     35000   0.98721695     1.4671141      0.070215228    1.5373293    
     35500   1.0211357      1.5175211      0.011655299    1.5291764    
     36000   0.9551186      1.4194124      0.014446305    1.4338587    
     36500   0.94247595     1.400624       0.056457568    1.4570815    
     37000   1.1016832      1.6372236      0.0027564945   1.6399801    
     37500   0.98150743     1.4586291      0.0017554019   1.4603845    
     38000   1.081771       1.6076319      0.017485597    1.6251175    
     38500   1.0290507      1.5292837      0.022753913    1.5520376    
     39000   1.0446903      1.5525259      0.0018615827   1.5543875    
     39500   1.1009138      1.6360803      0.0090009291   1.6450812    
     40000   1.0742811      1.5965011      0.034682551    1.6311836    
     40500   0.98424098     1.4626915      0.014742882    1.4774343    
     41000   1.1036138      1.6400928      0.0079623601   1.6480552    
     41500   0.91139443     1.3544334      0.02400596     1.3784394    
     42000   1.1351283      1.6869268      0.0095863857   1.6965132    
     42500   0.99406422     1.4772899      0.013611608    1.4909015    
     43000   0.91655257     1.362099       0.056695372    1.4187943    
     43500   1.0750065      1.5975791      0.0047677623   1.6023468    
     44000   1.0763879      1.5996321      0.014790274    1.6144224    
     44500   0.88669613     1.317729       0.027624103    1.3453531    
     45000   1.0798054      1.6047108      0.024932268    1.6296431    
     45500   0.96296823     1.4310778      0.037469207    1.468547     
     46000   0.89996799     1.3374524      0.017452172    1.3549046    
     46500   1.0284121      1.5283347      0.0077967902   1.5361315    
     47000   1.0888656      1.6181752      0.051109598    1.6692848    
     47500   1.0313075      1.5326376      0.016742111    1.5493797    
     48000   0.95816641     1.4239417      0.0079544787   1.4318962    
     48500   0.97695699     1.4518666      0.014872202    1.4667388    
     49000   1.0056651      1.49453        0.0035990053   1.498129     
     49500   0.95426714     1.418147       0.0056959579   1.423843     
     50000   0.95652156     1.4214973      0.0062260766   1.4277234    
     50500   0.9714812      1.443729       0.003887849    1.4476168    
     51000   0.98886739     1.4695668      0.022541466    1.4921083    
     51500   1.1459713      1.7030407      0.0095015381   1.7125422    
     52000   0.92011551     1.3673939      0              1.3673939    
     52500   0.98312954     1.4610397      0.014607085    1.4756468    
     53000   1.0212744      1.5177273      0.028220941    1.5459482    
     53500   0.99503211     1.4787283      0.0060081648   1.4847364    
     54000   1.0532059      1.565181       0.016826896    1.5820079    
     54500   1.053258       1.5652585      0.0081515455   1.57341      
     55000   0.9790945      1.4550432      0.00080598365  1.4558492    
     55500   0.87011893     1.2930934      0.018152983    1.3112464    
     56000   0.93525386     1.3898912      0.00062127651  1.3905124    
     56500   0.8955355      1.3308653      0.014460001    1.3453253    
     57000   1.0438994      1.5513505      0.039365228    1.5907157    
     57500   1.1075325      1.6459164      0.01764732     1.6635637    
     58000   1.0774409      1.6011968      0.021066719    1.6222636    
     58500   1.0508965      1.5617489      0.014605325    1.5763543    
     59000   1.0153895      1.5089816      0.023799597    1.5327812    
     59500   1.0191713      1.5146018      0.0044053012   1.5190071    
     60000   0.90456464     1.3442836      0.048141814    1.3924254    
     60500   0.83415203     1.2396426      0.020302321    1.2599449    
     61000   0.99816421     1.4833829      0.031810712    1.5151936    
     61500   0.91442052     1.3589305      0.073828343    1.4327588    
     62000   0.99926018     1.4850117      0.036625706    1.5216374    
     62500   0.97388511     1.4473015      0.0079181881   1.4552197    
     63000   1.2206701      1.8140513      0.020780454    1.8348318    
     63500   1.0686049      1.5880656      0.014009684    1.6020753    
     64000   1.1425575      1.6979674      0.0072938677   1.7052612    
     64500   0.99263573     1.475167       0.04695727     1.5221243    
     65000   0.96205204     1.4297162      0.015803441    1.4455197    
     65500   1.0913524      1.6218709      0.0018988992   1.6237698    
     66000   0.98819779     1.4685717      0.0090355223   1.4776072    
     66500   1.0910792      1.621465       0.011447313    1.6329123    
     67000   0.92260124     1.371088       0.041098178    1.4121861    
     67500   1.1064781      1.6443493      0.041337415    1.6856867    
     68000   0.92657826     1.3769982      0.043324037    1.4203223    
     68500   0.95462046     1.4186721      0.018231525    1.4369036    
     69000   0.95473028     1.4188353      0.018959363    1.4377946    
     69500   1.0189327      1.5142472      0.0055923788   1.5198396    
     70000   1.1652165      1.7316413      0.012809715    1.744451     
     70500   0.91977729     1.3668912      0.0035295551   1.3704208    
     71000   1.0603853      1.5758504      0.0012990994   1.5771495    
     71500   0.98948799     1.4704891      0.0099397171   1.4804288    
     72000   1.0262409      1.525108       0.0080057714   1.5331138    
     72500   1.0098589      1.5007625      0.01242199     1.5131845    
     73000   1.0106697      1.5019675      0.0045055676   1.5064731    
     73500   0.91630194     1.3617265      0.033831429    1.3955579    
     74000   0.99714374     1.4818664      0.033914779    1.5157812    
     74500   0.92733779     1.378127       0.0091489867   1.387276     
     75000   0.82978548     1.2331534      0.0038921502   1.2370456    
     75500   0.92365085     1.3726478      0.0020820357   1.3747298    
     76000   1.0408755      1.5468567      0.038759991    1.5856167    
     76500   1.1480726      1.7061634      0.0077453392   1.7139088    
     77000   1.1181018      1.6616235      0.008862394    1.6704859    
     77500   0.95888303     1.4250067      0.022738758    1.4477455    
     78000   1.0183565      1.5133909      0.019250925    1.5326418    
     78500   1.1344751      1.6859561      0              1.6859561    
     79000   0.89502518     1.3301069      0.022897844    1.3530047    
     79500   1.1230986      1.6690493      0.0052562577   1.6743056    
     80000   0.98338033     1.4614124      0.0085527291   1.4699652    
     80500   0.88288869     1.3120707      0.018543184    1.3306139    
     81000   0.96435935     1.4331451      0.017948473    1.4510936    
     81500   0.98303331     1.4608967      0.0066214309   1.4675182    
     82000   1.0033427      1.4910787      0.01134482     1.5024236    
     82500   0.92387721     1.3729842      0.0065211681   1.3795054    
     83000   0.94512905     1.4045668      0.0046532614   1.40922      
     83500   1.0701703      1.590392       0.011594306    1.6019863    
     84000   0.96443075     1.4332513      0              1.4332513    
     84500   0.98011397     1.4565583      0              1.4565583    
     85000   1.0250116      1.5232811      0.0068921582   1.5301732    
     85500   0.92652764     1.376923       0.0091269849   1.38605      
     86000   1.0295861      1.5300793      0.00034274613  1.5304221    
     86500   1.1060311      1.6436851      0.009024767    1.6527099    
     87000   1.019315       1.5148154      0.005108383    1.5199238    
     87500   1.1220915      1.6675527      0.022127494    1.6896802    
     88000   1.0262377      1.5251033      0.0017609262   1.5268642    
     88500   0.99079353     1.4724293      0.014235265    1.4866645    
     89000   0.88825979     1.3200528      0.0054224507   1.3254752    
     89500   1.028177       1.5279852      0.00090720102  1.5288924    
     90000   0.98005292     1.4564675      0.0066369847   1.4631045    
     90500   0.89427929     1.3289984      0.043161222    1.3721596    
     91000   0.91698152     1.3627364      0.020361348    1.3830978    
     91500   0.96634581     1.4360972      0.00086396531  1.4369612    
     92000   1.0908594      1.6211383      0.0021979744   1.6233363    
     92500   0.9615998      1.4290441      0.0017289158   1.4307731    
     93000   0.96761306     1.4379805      0.014885029    1.4528655    
     93500   0.98276984     1.4605052      0.0032263617   1.4637315    
     94000   1.0631008      1.5798859      0.015475365    1.5953613    
     94500   1.0177059      1.512424       0.010302472    1.5227265    
     95000   0.9601942      1.4269553      0.00055000965  1.4275053    
     95500   0.9292912      1.38103        0.056442642    1.4374726    
     96000   1.0563591      1.569867       0.026637858    1.5965048    
     96500   0.92023426     1.3675704      0.012489812    1.3800602    
     97000   0.96888036     1.4398639      0.016140929    1.4560048    
     97500   0.9834374      1.4614972      0.026490399    1.4879876    
     98000   0.91160772     1.3547504      0.018060454    1.3728108    
     98500   0.95643976     1.4213758      0.0040576968   1.4254335    
     99000   1.2128509      1.8024313      0.015490778    1.817922     
     99500   1.0490522      1.5590082      0.015997561    1.5750057    
    100000   0.80877555     1.2019303      0.015812318    1.2177426    
    100020   0.89557627     1.3309258      0.014170644    1.3450965    
Loop time of 0.688098 on 1 procs for 100000 steps with 108 atoms

Performance: 12556350.711 tau/day, 145328.133 timesteps/s, 15.695 Matom-step/s
129.2% CPU use with 1 MPI tasks x 1 OpenMP threads

MPI task timing breakdown:
Section |  min time  |  avg time  |  max time  |%varavg| %total
---------------------------------------------------------------
Pair    | 0.03162    | 0.03162    | 0.03162    |   0.0 |  4.60
Neigh   | 0.0073911  | 0.0073911  | 0.0073911  |   0.0 |  1.07
Comm    | 0.088606   | 0.088606   | 0.088606   |   0.0 | 12.88
Output  | 0.0047179  | 0.0047179  | 0.0047179  |   0.0 |  0.69
Modify  | 0.52708    | 0.52708    | 0.52708    |   0.0 | 76.60
Other   |            | 0.02868    |            |       |  4.17

Nlocal:            108 ave         108 max         108 min
Histogram: 1 0 0 0 0 0 0 0 0 0
Nghost:            111 ave         111 max         111 min
Histogram: 1 0 0 0 0 0 0 0 0 0
Neighs:             44 ave          44 max          44 min
Histogram: 1 0 0 0 0 0 0 0 0 0

Total # of neighbors = 44
Ave neighs/atom = 0.40740741
Neighbor list builds = 299
Dangerous builds = 0

write_data data.${outfile} nocoeff nofix
write_data data.1708803117 nocoeff nofix
System init for write_data ...
Generated 0 of 0 mixed pair_coeff terms from geometric mixing rule
Total wall time: 0:00:00
