LAMMPS (21 Nov 2023)
OMP_NUM_THREADS environment is not set. Defaulting to 1 thread. (src/comm.cpp:98)
  using 1 OpenMP thread(s) per MPI task
###variable outfile string L15.17
###variable L equal 15.17

units lj

newton off
atom_style      sphere
boundary        p p p
comm_modify     mode single vel yes


region      boxid block 0.0     $L      0.0       $L      0.0       $L
region      boxid block 0.0     10.4188      0.0       $L      0.0       $L
region      boxid block 0.0     10.4188      0.0       10.4188      0.0       $L
region      boxid block 0.0     10.4188      0.0       10.4188      0.0       10.4188
#create_box  1 boxid
include create_box.in
create_box 1 boxid
Created orthogonal box = (0 0 0) to (10.4188 10.4188 10.4188)
  1 by 1 by 1 MPI processor grid


######
include create_np.in
create_atoms 1 random 108 5722 boxid
Created 108 atoms
  using lattice units in orthogonal box = (0 0 0) to (10.4188 10.4188 10.4188)
  create_atoms CPU = 0.001 seconds
velocity    all create 1.0 87287 dist gaussian

#####
include particles.in
set type 1 diameter 1.0
Setting atom values ...
  108 settings made for diameter
set type 1 mass 26.0
Setting atom values ...
  108 settings made for mass

###
fix 1 all langevin 1.0 1.0 0.1 12345
fix 2 all nve/sphere

###
pair_style lj/cut 1.
include pots_lj_lan.in
pair_coeff 1 1 10.0 1.0 1.122462048309373
pair_modify shift yes



minimize          1.0e-4 1.0e-6 1000 1000
Generated 0 of 0 mixed pair_coeff terms from geometric mixing rule
Neighbor list info ...
  update: every = 1 steps, delay = 0 steps, check = yes
  max neighbors/atom: 2000, page size: 100000
  master list distance cutoff = 1.422462
  ghost atom cutoff = 1.422462
  binsize = 0.71123102, bins = 15 15 15
  1 neighbor lists, perpetual/occasional/extra = 1 0 0
  (1) pair lj/cut, perpetual
      attributes: half, newton off
      pair build: half/bin/newtoff
      stencil: full/bin/3d
      bin: standard
Per MPI rank memory allocation (min/avg/max) = 5.464 | 5.464 | 5.464 Mbytes
   Step          Temp          E_pair         E_mol          TotEng         Press     
         0   49.656342      14399.352      0              14473.147      5534.2991    
        13   49.656342      3.1633897e-05  0              73.794874      4.6985835    
Loop time of 0.000388893 on 1 procs for 13 steps with 108 atoms

238.9% CPU use with 1 MPI tasks x 1 OpenMP threads

Minimization stats:
  Stopping criterion = quadratic factors are zero
  Energy initial, next-to-last, final = 
      14399.3516773655 3.16338968841267e-05 3.16338968841267e-05
  Force two-norm initial, final = 41242353 2.8549109
  Force max component initial, final = 23939111 1.8865228
  Final line search alpha, max atom move = 0.048413587 0.091333337
  Iterations, force evaluations = 13 33

MPI task timing breakdown:
Section |  min time  |  avg time  |  max time  |%varavg| %total
---------------------------------------------------------------
Pair    | 3.5058e-05 | 3.5058e-05 | 3.5058e-05 |   0.0 |  9.01
Neigh   | 0.00018119 | 0.00018119 | 0.00018119 |   0.0 | 46.59
Comm    | 6.1665e-05 | 6.1665e-05 | 6.1665e-05 |   0.0 | 15.86
Output  | 0          | 0          | 0          |   0.0 |  0.00
Modify  | 0          | 0          | 0          |   0.0 |  0.00
Other   |            | 0.000111   |            |       | 28.54

Nlocal:            108 ave         108 max         108 min
Histogram: 1 0 0 0 0 0 0 0 0 0
Nghost:            125 ave         125 max         125 min
Histogram: 1 0 0 0 0 0 0 0 0 0
Neighs:             80 ave          80 max          80 min
Histogram: 1 0 0 0 0 0 0 0 0 0

Total # of neighbors = 80
Ave neighs/atom = 0.74074074
Neighbor list builds = 5
Dangerous builds = 0

thermo_style custom step temp ke pe etotal
thermo 500
timestep 0.001
#dump    id all custom 5000 out_lan_${outfile}.lammpstrj id type radius mass xu yu zu vx vy vz fx fy fz
dump    id all custom 5000 out_lan_${outfile}.lammpstrj id type radius mass x y z
dump    id all custom 5000 out_lan_1708717560.lammpstrj id type radius mass x y z
run 100000
Generated 0 of 0 mixed pair_coeff terms from geometric mixing rule
Per MPI rank memory allocation (min/avg/max) = 4.339 | 4.339 | 4.339 Mbytes
   Step          Temp          KinEng         PotEng         TotEng    
        13   49.656342      73.794842      3.1633897e-05  73.794874    
       500   1.032737       1.534762       0.030839081    1.5656011    
      1000   1.0479378      1.5573521      0.042113641    1.5994657    
      1500   1.0772393      1.6008972      0.062262154    1.6631594    
      2000   0.94310373     1.4015569      0.032875342    1.4344323    
      2500   1.1461021      1.703235       0.024106546    1.7273415    
      3000   0.96835569     1.4390842      0.009135635    1.4482198    
      3500   1.0700609      1.5902294      0.039077784    1.6293072    
      4000   1.0308071      1.5318938      0.0094887548   1.5413826    
      4500   0.98714989     1.4670144      0.025936442    1.4929509    
      5000   0.98388        1.462155       0.056474527    1.5186295    
      5500   1.0991369      1.6334396      0.06110824     1.6945478    
      6000   0.9938688      1.4769995      0.02491448     1.5019139    
      6500   1.0642887      1.5816512      0.016449314    1.5981005    
      7000   1.0191705      1.5146007      0.030259283    1.5448599    
      7500   0.94788618     1.4086642      0.028086225    1.4367504    
      8000   1.0164829      1.5106066      0.046564465    1.5571711    
      8500   1.1158445      1.6582689      0.029653398    1.6879223    
      9000   0.97449924     1.4482142      0.031527879    1.479742     
      9500   1.1090656      1.6481947      0.0093385014   1.6575332    
     10000   1.0179128      1.5127316      0.028220047    1.5409516    
     10500   1.004134       1.4922547      0.035742992    1.5279977    
     11000   0.97309837     1.4461323      0.025066783    1.4711991    
     11500   0.93377758     1.3876972      0.011853145    1.3995504    
     12000   0.95524713     1.4196034      0.047201049    1.4668044    
     12500   0.93767438     1.3934883      0.021214614    1.4147029    
     13000   0.98368372     1.4618633      0.049849125    1.5117124    
     13500   1.0665958      1.5850799      0.0045315881   1.5896115    
     14000   1.1058296      1.6433857      0.021098963    1.6644846    
     14500   1.0118173      1.503673       0.010340501    1.5140135    
     15000   1.0284927      1.5284544      0.048646915    1.5771013    
     15500   0.98949147     1.4704943      0.022890499    1.4933848    
     16000   0.95716931     1.4224599      0.037080712    1.4595407    
     16500   1.0720143      1.5931324      0.011560693    1.6046931    
     17000   0.9467885      1.4070329      0.018724464    1.4257574    
     17500   0.93708817     1.3926171      0.011658696    1.4042758    
     18000   1.0473626      1.5564971      0.020583154    1.5770803    
     18500   1.0537978      1.5660606      0.004862158    1.5709228    
     19000   0.97187009     1.4443069      0.020812471    1.4651194    
     19500   1.1780698      1.7507426      0.061518604    1.8122612    
     20000   1.0820313      1.6080187      0.010405553    1.6184243    
     20500   1.1092303      1.6484394      0.070937938    1.7193774    
     21000   0.97516295     1.4492005      0.011491482    1.460692     
     21500   0.90757938     1.3487638      0.0011127984   1.3498766    
     22000   1.0284505      1.5283917      0.019636321    1.548028     
     22500   0.96388631     1.4324422      0.00075285887  1.433195     
     23000   0.96521929     1.4344231      0.036058381    1.4704815    
     23500   0.98065416     1.457361       0.024469323    1.4818304    
     24000   1.0019998      1.4890831      0.0011194489   1.4902025    
     24500   1.0248852      1.5230933      0.014795337    1.5378886    
     25000   0.90275193     1.3415897      0.0049269879   1.3465167    
     25500   1.030169       1.5309456      0.022050757    1.5529963    
     26000   1.0391435      1.5442827      0.02404518     1.5683279    
     26500   0.9432491      1.401773       0.060828065    1.462601     
     27000   0.96520689     1.4344047      0.038675094    1.4730798    
     27500   1.03585        1.5393882      0.018961481    1.5583497    
     28000   0.97721481     1.4522498      0.011937228    1.464187     
     28500   0.99826081     1.4835265      0.012492418    1.4960189    
     29000   1.1069508      1.6450519      0.033922936    1.6789748    
     29500   1.0828581      1.6092475      0.021372297    1.6306198    
     30000   1.0363584      1.5401438      0.028506061    1.5686498    
     30500   0.97984831     1.4561635      0.0013653238   1.4575288    
     31000   0.96632478     1.436066       0.017833305    1.4538993    
     31500   0.95446836     1.418446       0.013001831    1.4314479    
     32000   1.0843241      1.611426       0.020638343    1.6320644    
     32500   1.0413469      1.5475573      0.019448535    1.5670058    
     33000   1.0473959      1.5565467      0.014654836    1.5712015    
     33500   0.99802025     1.483169       0.0088113713   1.4919804    
     34000   0.97624948     1.4508152      0.033822341    1.4846375    
     34500   1.0178525      1.512642       0.015753437    1.5283954    
     35000   1.0005984      1.4870004      0.010052958    1.4970533    
     35500   1.0121848      1.5042191      0.014275908    1.518495     
     36000   0.90118339     1.3392587      0.068945627    1.4082043    
     36500   0.98261624     1.4602769      0.061254469    1.5215314    
     37000   1.1059364      1.6435444      0.026479486    1.6700239    
     37500   0.92241894     1.370817       0.0087512028   1.3795682    
     38000   1.0989988      1.6332343      0.047455082    1.6806894    
     38500   1.0091974      1.4997794      0.013416272    1.5131957    
     39000   1.0320666      1.5337656      0.012406162    1.5461718    
     39500   1.0735078      1.5953518      0.051850782    1.6472026    
     40000   1.1096478      1.64906        0.0015924625   1.6506524    
     40500   0.93642663     1.391634       0.0053730596   1.3970071    
     41000   1.0400192      1.5455841      0.04021135     1.5857954    
     41500   0.92269952     1.371234       0.0043760559   1.3756101    
     42000   1.1181802      1.66174        0.045750759    1.7074907    
     42500   0.95589473     1.4205658      0.057024859    1.4775906    
     43000   0.95733684     1.4227089      0.060752311    1.4834612    
     43500   1.0521104      1.5635529      0.0082481974   1.5718011    
     44000   1.05975        1.5749063      0.058098793    1.6330051    
     44500   0.93813064     1.3941664      0.021118222    1.4152846    
     45000   1.0144947      1.5076518      0.0027762649   1.5104281    
     45500   0.97412663     1.4476604      0.025385199    1.4730456    
     46000   0.86254012     1.2818305      0.026627289    1.3084577    
     46500   0.96752197     1.4378451      0.029432881    1.467278     
     47000   1.0006133      1.4870226      0.001821277    1.4888438    
     47500   1.0621433      1.5784629      0.030360063    1.608823     
     48000   0.93152086     1.3843435      0.038459034    1.4228025    
     48500   0.97085242     1.4427946      0.018572375    1.4613669    
     49000   0.93222837     1.3853949      0.004023568    1.3894185    
     49500   0.92828669     1.3795372      0.011302031    1.3908392    
     50000   0.9925151      1.4749877      0.014670509    1.4896582    
     50500   1.0612684      1.5771627      0.06197526     1.639138     
     51000   1.0136757      1.5064347      0.0089326291   1.5153673    
     51500   1.1560058      1.7179531      0.020623969    1.738577     
     52000   0.96577721     1.4352522      0.0062094762   1.4414617    
     52500   0.9671424      1.4372811      0.02067926     1.4579603    
     53000   1.0064024      1.4956259      0.047653579    1.5432794    
     53500   1.0061446      1.4952427      0.01686013     1.5121028    
     54000   1.0313123      1.5326447      0.040805508    1.5734502    
     54500   1.0081407      1.4982091      0.025642631    1.5238517    
     55000   1.0359938      1.5396019      0.011031104    1.550633     
     55500   0.91096252     1.3537915      0.0044716256   1.3582631    
     56000   0.99056969     1.4720966      0.0020654372   1.4741621    
     56500   0.92265269     1.3711644      0.014982461    1.3861469    
     57000   0.96487654     1.4339137      0.079866522    1.5137803    
     57500   1.0207958      1.517016       0.039193015    1.5562091    
     58000   1.0918609      1.6226266      0.047159902    1.6697865    
     58500   1.0247511      1.522894       0.014081358    1.5369754    
     59000   1.0364096      1.5402198      0.0091188114   1.5493386    
     59500   1.0061998      1.4953248      0.023564487    1.5188892    
     60000   1.0027194      1.4901524      0.0061040815   1.4962565    
     60500   0.90370359     1.3430039      0.013431702    1.3564357    
     61000   0.97535438     1.449485       0.028029145    1.4775141    
     61500   0.95719498     1.4224981      0.010515946    1.433014     
     62000   0.98433465     1.4628307      0.006739288    1.46957      
     62500   0.91571944     1.3608608      0.075867718    1.4367286    
     63000   1.2244643      1.81969        0.0075919087   1.8272819    
     63500   1.0371369      1.5413007      0.034891658    1.5761923    
     64000   1.125309       1.6723343      0.0047523348   1.6770866    
     64500   0.94906485     1.4104158      0.030521284    1.4409371    
     65000   0.93047154     1.3827841      0.019567594    1.4023517    
     65500   0.95498304     1.4192109      0.041388198    1.4605991    
     66000   1.0180876      1.5129912      0.017255129    1.5302464    
     66500   1.0989387      1.6331449      0.055669749    1.6888147    
     67000   0.90798083     1.3493604      0.020334225    1.3696946    
     67500   1.0651659      1.5829549      0.0094221492   1.5923771    
     68000   0.95707702     1.4223228      0.0019714698   1.4242943    
     68500   0.95223997     1.4151344      0.0019262578   1.4170607    
     69000   0.95939165     1.4257626      0.01086176     1.4366244    
     69500   1.0045914      1.4929345      0.021196318    1.5141308    
     70000   1.1270424      1.6749102      0.018216427    1.6931266    
     70500   0.85201243     1.2661851      0.0046485838   1.2708337    
     71000   1.0031869      1.4908472      0.00058181358  1.491429     
     71500   0.97971715     1.4559685      0.00079844056  1.456767     
     72000   1.0177468      1.5124848      0.015703556    1.5281884    
     72500   1.0627925      1.5794277      0.0093740344   1.5888018    
     73000   0.92600435     1.3761453      0.017126996    1.3932723    
     73500   0.964357       1.4331416      0.0031803311   1.436322     
     74000   0.93270551     1.386104       0.025264027    1.411368     
     74500   0.9228481      1.3714548      0.01531424     1.3867691    
     75000   0.81908828     1.2172562      0.031568203    1.2488244    
     75500   0.86594971     1.2868975      0.034936078    1.3218336    
     76000   1.0141383      1.5071222      0.0053148143   1.512437     
     76500   1.1266706      1.6743577      0.029648067    1.7040058    
     77000   1.1108668      1.6508715      0.049259672    1.7001311    
     77500   1.0396983      1.5451072      0.0015236428   1.5466308    
     78000   1.0862814      1.6143349      0.0093893871   1.6237243    
     78500   1.1068885      1.6449593      0.0054323144   1.6503916    
     79000   0.94476939     1.4040323      0.0011068071   1.4051391    
     79500   1.1327652      1.6834149      0.027016036    1.710431     
     80000   0.93365129     1.3875096      0.034366464    1.421876     
     80500   0.88142155     1.3098904      0.033345417    1.3432358    
     81000   0.99413878     1.4774007      0.0041388682   1.4815396    
     81500   1.0128379      1.5051897      0.0055712181   1.5107609    
     82000   0.98940094     1.4703597      0.023539044    1.4938988    
     82500   0.94117469     1.3986902      0.02127668     1.4199668    
     83000   0.95818704     1.4239724      0.0079828686   1.4319553    
     83500   1.0907701      1.6210056      0.0044572211   1.6254628    
     84000   0.94550528     1.4051259      0.031458457    1.4365844    
     84500   0.93643509     1.3916466      0.008989709    1.4006363    
     85000   1.0569773      1.5707857      0.00053873358  1.5713244    
     85500   0.91150721     1.354601       0.013196757    1.3677978    
     86000   1.0169605      1.5113163      0.0075206336   1.5188369    
     86500   1.0785587      1.602858       0.0023350927   1.6051931    
     87000   1.0061537      1.4952561      0.0030431065   1.4982992    
     87500   1.1572084      1.7197402      0.005786425    1.7255266    
     88000   1.0412392      1.5473971      0.022775417    1.5701725    
     88500   1.0189984      1.5143449      0.010186275    1.5245312    
     89000   0.82400817     1.2245677      0.043465714    1.2680334    
     89500   1.0264872      1.525474       0.020530957    1.5460049    
     90000   1.0064612      1.4957131      0.029567481    1.5252806    
     90500   0.87321112     1.2976888      0.015572884    1.3132616    
     91000   0.89175628     1.3252489      0.0045753314   1.3298242    
     91500   0.96677345     1.4367328      0.0088588926   1.4455917    
     92000   1.1716416      1.7411896      0.024196734    1.7653863    
     92500   0.96327025     1.4315266      0.0016290787   1.4331557    
     93000   0.97967058     1.4558993      0.027359572    1.4832589    
     93500   1.0099773      1.5009384      0.0032004649   1.5041389    
     94000   1.1079146      1.6464842      0.011721035    1.6582052    
     94500   1.0462039      1.5547752      0.0047217055   1.559497     
     95000   0.9405363      1.3977414      0.0092075759   1.406949     
     95500   0.96866005     1.4395365      0.0016115284   1.441148     
     96000   1.1097632      1.6492315      0.028921991    1.6781535    
     96500   0.93087392     1.3833821      0.014678052    1.3980601    
     97000   1.014673       1.5079169      0.034232862    1.5421497    
     97500   1.0119967      1.5039396      0.029907609    1.5338472    
     98000   0.91327886     1.3572339      0.0063326263   1.3635665    
     98500   1.0476267      1.5568897      0.0076638139   1.5645535    
     99000   1.1972834      1.7792962      0.0076239506   1.7869201    
     99500   1.027834       1.5274755      0.0024014505   1.5298769    
    100000   0.84741662     1.2593553      0.001092341    1.2604476    
    100013   0.88916126     1.3213924      0.0017343353   1.3231268    
Loop time of 0.72849 on 1 procs for 100000 steps with 108 atoms

Performance: 11860156.125 tau/day, 137270.326 timesteps/s, 14.825 Matom-step/s
129.0% CPU use with 1 MPI tasks x 1 OpenMP threads

MPI task timing breakdown:
Section |  min time  |  avg time  |  max time  |%varavg| %total
---------------------------------------------------------------
Pair    | 0.033812   | 0.033812   | 0.033812   |   0.0 |  4.64
Neigh   | 0.0076183  | 0.0076183  | 0.0076183  |   0.0 |  1.05
Comm    | 0.096918   | 0.096918   | 0.096918   |   0.0 | 13.30
Output  | 0.0046541  | 0.0046541  | 0.0046541  |   0.0 |  0.64
Modify  | 0.55535    | 0.55535    | 0.55535    |   0.0 | 76.23
Other   |            | 0.03013    |            |       |  4.14

Nlocal:            108 ave         108 max         108 min
Histogram: 1 0 0 0 0 0 0 0 0 0
Nghost:            125 ave         125 max         125 min
Histogram: 1 0 0 0 0 0 0 0 0 0
Neighs:             41 ave          41 max          41 min
Histogram: 1 0 0 0 0 0 0 0 0 0

Total # of neighbors = 41
Ave neighs/atom = 0.37962963
Neighbor list builds = 298
Dangerous builds = 0

write_data data.${outfile} nocoeff nofix
write_data data.1708717560 nocoeff nofix
System init for write_data ...
Generated 0 of 0 mixed pair_coeff terms from geometric mixing rule
Total wall time: 0:00:00
