LAMMPS (21 Nov 2023)
OMP_NUM_THREADS environment is not set. Defaulting to 1 thread. (src/comm.cpp:98)
  using 1 OpenMP thread(s) per MPI task
###variable outfile string L15.17
###variable L equal 15.17

units lj

newton off
atom_style      sphere
boundary        p p p
comm_modify     mode single vel yes


region      boxid block 0.0     $L      0.0       $L      0.0       $L
region      boxid block 0.0     8.27      0.0       $L      0.0       $L
region      boxid block 0.0     8.27      0.0       8.27      0.0       $L
region      boxid block 0.0     8.27      0.0       8.27      0.0       8.27
#create_box  1 boxid
include create_box.in
create_box 1 boxid
Created orthogonal box = (0 0 0) to (8.27 8.27 8.27)
  1 by 1 by 1 MPI processor grid


######
include create_np.in
create_atoms 1 random 54 4464 boxid
Created 54 atoms
  using lattice units in orthogonal box = (0 0 0) to (8.27 8.27 8.27)
  create_atoms CPU = 0.000 seconds
velocity    all create 1.0 87287 dist gaussian

#####
include particles.in
set type 1 diameter 1.0
Setting atom values ...
  54 settings made for diameter
set type 1 mass 26.0
Setting atom values ...
  54 settings made for mass

###
fix 1 all langevin 1.0 1.0 0.1 12345
fix 2 all nve/sphere

###
pair_style lj/cut 1.
include pots_lj_lan.in
pair_coeff 1 1 10.0 1.0 1.122462048309373
pair_modify shift yes



minimize          1.0e-4 1.0e-6 1000 1000
Generated 0 of 0 mixed pair_coeff terms from geometric mixing rule
Neighbor list info ...
  update: every = 1 steps, delay = 0 steps, check = yes
  max neighbors/atom: 2000, page size: 100000
  master list distance cutoff = 1.422462
  ghost atom cutoff = 1.422462
  binsize = 0.71123102, bins = 12 12 12
  1 neighbor lists, perpetual/occasional/extra = 1 0 0
  (1) pair lj/cut, perpetual
      attributes: half, newton off
      pair build: half/bin/newtoff
      stencil: full/bin/3d
      bin: standard
Per MPI rank memory allocation (min/avg/max) = 5.451 | 5.451 | 5.451 Mbytes
   Step          Temp          E_pair         E_mol          TotEng         Press     
         0   49.656342      53064.014      0              53137.119      20315.871    
        11   49.656342      0.064936917    0              73.170107      4.8407134    
Loop time of 0.000147844 on 1 procs for 11 steps with 54 atoms

334.8% CPU use with 1 MPI tasks x 1 OpenMP threads

Minimization stats:
  Stopping criterion = quadratic factors are zero
  Energy initial, next-to-last, final = 
      53064.0137600206 0.0649369172010705 0.0649369172010705
  Force two-norm initial, final = 1.2085399e+08 104.13744
  Force max component initial, final = 52862875 27.97031
  Final line search alpha, max atom move = 0.0035752196 0.1
  Iterations, force evaluations = 11 30

MPI task timing breakdown:
Section |  min time  |  avg time  |  max time  |%varavg| %total
---------------------------------------------------------------
Pair    | 1.7612e-05 | 1.7612e-05 | 1.7612e-05 |   0.0 | 11.91
Neigh   | 5.6113e-05 | 5.6113e-05 | 5.6113e-05 |   0.0 | 37.95
Comm    | 3.0497e-05 | 3.0497e-05 | 3.0497e-05 |   0.0 | 20.63
Output  | 0          | 0          | 0          |   0.0 |  0.00
Modify  | 0          | 0          | 0          |   0.0 |  0.00
Other   |            | 4.362e-05  |            |       | 29.51

Nlocal:             54 ave          54 max          54 min
Histogram: 1 0 0 0 0 0 0 0 0 0
Nghost:             69 ave          69 max          69 min
Histogram: 1 0 0 0 0 0 0 0 0 0
Neighs:             36 ave          36 max          36 min
Histogram: 1 0 0 0 0 0 0 0 0 0

Total # of neighbors = 36
Ave neighs/atom = 0.66666667
Neighbor list builds = 3
Dangerous builds = 1

thermo_style custom step temp ke pe etotal
thermo 500
timestep 0.001
#dump    id all custom 5000 out_lan_${outfile}.lammpstrj id type radius mass xu yu zu vx vy vz fx fy fz
dump    id all custom 5000 out_lan_${outfile}.lammpstrj id type radius mass x y z
dump    id all custom 5000 out_lan_1708713046.lammpstrj id type radius mass x y z
run 100000
Generated 0 of 0 mixed pair_coeff terms from geometric mixing rule
Per MPI rank memory allocation (min/avg/max) = 4.326 | 4.326 | 4.326 Mbytes
   Step          Temp          KinEng         PotEng         TotEng    
        11   49.656342      73.105171      0.064936917    73.170107    
       500   0.87199834     1.2837753      0.0082958429   1.2920712    
      1000   1.1834985      1.7423728      0.040076634    1.7824494    
      1500   1.1773589      1.7333339      0.031299656    1.7646336    
      2000   1.1718279      1.7251911      0.014423286    1.7396144    
      2500   1.2279247      1.807778       0.0056155967   1.8133936    
      3000   0.7561525      1.1132245      0.019701254    1.1329258    
      3500   1.1334266      1.6686558      0.025461575    1.6941174    
      4000   1.2035358      1.7718722      0.019442003    1.7913142    
      4500   1.0947268      1.6116811      0.020725559    1.6324066    
      5000   1.0350981      1.5238944      0.00099765027  1.524892     
      5500   1.0925927      1.6085393      0.00060862497  1.6091479    
      6000   1.0920366      1.6077206      0.0052590412   1.6129797    
      6500   0.92259925     1.3582711      2.9976212e-06  1.3582741    
      7000   1.0700933      1.5754152      0.0072827571   1.5826979    
      7500   0.87751392     1.2918955      0.06716517     1.3590607    
      8000   0.96668419     1.4231739      0.038622877    1.4617968    
      8500   0.95721081     1.409227       2.3509755e-05  1.4092505    
      9000   1.1185274      1.6467209      0.018085332    1.6648062    
      9500   1.0541951      1.5520095      0.046254991    1.5982645    
     10000   1.0661646      1.5696312      0.0015365641   1.5711677    
     10500   1.141847       1.6810526      0.044903738    1.7259563    
     11000   0.94253113     1.3876153      0.011576407    1.3991917    
     11500   0.91167238     1.3421843      0.00039980528  1.3425841    
     12000   1.1315001      1.6658195      0.061725935    1.7275455    
     12500   1.1086862      1.6322325      0.05160442     1.6838369    
     13000   1.0000196      1.4722511      0.0018688192   1.4741199    
     13500   1.0073927      1.4831059      0.003950848    1.4870567    
     14000   1.0975471      1.6158333      0.01990519     1.6357385    
     14500   1.0390735      1.529747       0.028381607    1.5581286    
     15000   1.0480757      1.5430004      0.0038444949   1.5468449    
     15500   0.9481145      1.3958352      0.0047269358   1.4005622    
     16000   1.0315432      1.5186609      0              1.5186609    
     16500   0.89261488     1.3141275      0.0016392831   1.3157668    
     17000   1.215433       1.7893875      0.0017364724   1.7911239    
     17500   0.88794342     1.30725        0.0091404426   1.3163905    
     18000   1.0202736      1.5020694      0.016334268    1.5184037    
     18500   0.8427866      1.2407692      0.0052396924   1.2460088    
     19000   1.0502187      1.5461553      0              1.5461553    
     19500   1.0595482      1.5598904      0.017182023    1.5770724    
     20000   0.8822403      1.2988538      0.062823561    1.3616773    
     20500   0.99911985     1.4709264      0.0006764569   1.4716029    
     21000   0.98440056     1.4492564      0.035566338    1.4848227    
     21500   1.1247423      1.6558707      0.06496222     1.7208329    
     22000   1.1227378      1.6529195      0.019048433    1.671968     
     22500   1.0330297      1.5208493      0.035312714    1.556162     
     23000   1.0058152      1.4807835      0.029929934    1.5107135    
     23500   1.0949309      1.6119816      0.0077097344   1.6196914    
     24000   0.89393082     1.3160648      0              1.3160648    
     24500   1.0344708      1.5229709      0.048296164    1.5712671    
     25000   1.1091538      1.6329209      0.0075869929   1.6405079    
     25500   0.83842125     1.2343424      0.0073085237   1.2416509    
     26000   0.90672592     1.334902       0.0093693527   1.3442714    
     26500   1.0883266      1.6022587      0.0041250714   1.6063837    
     27000   1.0870668      1.6004039      0.030633222    1.6310371    
     27500   0.96800764     1.4251224      0.027565681    1.452688     
     28000   1.2917492      1.9017419      0              1.9017419    
     28500   1.143753       1.6838586      0.012603923    1.6964625    
     29000   1.0339606      1.5222198      0.033955154    1.556175     
     29500   1.0659713      1.5693467      0.048394034    1.6177407    
     30000   1.001334       1.4741862      0.0071974365   1.4813836    
     30500   1.1471777      1.6889005      0.010746674    1.6996472    
     31000   1.0091158      1.4856428      0.010973658    1.4966164    
     31500   0.97520546     1.4357192      0.025634785    1.4613539    
     32000   1.0295824      1.5157741      0.0035403596   1.5193145    
     32500   0.9767194      1.437948       0.0096568832   1.4476049    
     33000   1.2534547      1.8453639      0.0084890018   1.8538529    
     33500   0.96175747     1.4159207      0.042478119    1.4583988    
     34000   0.91687494     1.3498437      0.015309435    1.3651531    
     34500   1.0585593      1.5584346      0.00024570996  1.5586803    
     35000   0.88561326     1.3038195      0              1.3038195    
     35500   0.99496039     1.4648028      0              1.4648028    
     36000   1.1879961      1.7489942      0              1.7489942    
     36500   1.1283914      1.6612429      0.00905404     1.670297     
     37000   1.0508673      1.5471102      0.012785142    1.5598954    
     37500   0.89586888     1.3189181      0.0061876398   1.3251057    
     38000   0.97601836     1.4369159      0.0008417658   1.4377577    
     38500   1.1032327      1.6242037      0              1.6242037    
     39000   1.2025543      1.7704272      0.003877153    1.7743043    
     39500   1.0567703      1.5558007      0.0014674073   1.5572681    
     40000   1.1190864      1.6475438      7.3927407e-07  1.6475446    
     40500   1.081834       1.5927001      0.051503327    1.6442035    
     41000   0.98569799     1.4511665      0.056723613    1.5078901    
     41500   1.0727202      1.5792826      0.0099569244   1.5892395    
     42000   0.79473176     1.1700218      0.043556171    1.2135779    
     42500   1.0770528      1.5856611      0.0055038926   1.591165     
     43000   0.77793345     1.1452909      0.022721977    1.1680129    
     43500   0.92125182     1.3562874      0.020839041    1.3771264    
     44000   1.1093915      1.6332709      0              1.6332709    
     44500   0.71913153     1.0587214      0.002021943    1.0607434    
     45000   0.94743329     1.3948323      0.062642702    1.457475     
     45500   1.1032078      1.6241671      0.0090322791   1.6331993    
     46000   0.93900243     1.3824202      0.002446016    1.3848663    
     46500   1.0935912      1.6100093      0.037374266    1.6473836    
     47000   1.0519261      1.548669       0.005277073    1.5539461    
     47500   0.97687489     1.4381769      0.038632366    1.4768093    
     48000   1.0399757      1.5310753      0.051380421    1.5824557    
     48500   1.0343307      1.5227646      0.016117456    1.5388821    
     49000   1.1527674      1.6971297      0.0020319965   1.6991617    
     49500   0.92570389     1.3628418      0.029060841    1.3919027    
     50000   1.0139871      1.4928144      0.00012654769  1.4929409    
     50500   1.0379622      1.528111       0.0088807669   1.5369918    
     51000   1.1116195      1.636551       0.0028552397   1.6394062    
     51500   1.0589965      1.5590782      0.0051030225   1.5641812    
     52000   1.0727231      1.5792868      0.005434365    1.5847211    
     52500   1.016149       1.4959972      0.0013617613   1.497359     
     53000   0.96875125     1.4262171      0.0032837394   1.4295009    
     53500   0.85487024     1.258559       0.012641742    1.2712007    
     54000   0.97032613     1.4285357      0.0047468776   1.4332826    
     54500   1.1904032      1.7525381      0              1.7525381    
     55000   0.9524841      1.4022683      0.0032379405   1.4055062    
     55500   1.0175996      1.4981328      0              1.4981328    
     56000   0.87809087     1.2927449      0.0081034447   1.3008483    
     56500   0.83036835     1.2224867      0.010339123    1.2328259    
     57000   0.97566495     1.4363956      0.01973431     1.4561299    
     57500   1.0734305      1.5803283      0.0075688155   1.5878971    
     58000   0.88277839     1.299646       0.00010965655  1.2997556    
     58500   1.0731496      1.5799146      0.017502224    1.5974169    
     59000   1.1717174      1.7250284      0.024248836    1.7492773    
     59500   1.2324383      1.8144231      0.031262985    1.845686     
     60000   0.94255539     1.387651       0.048943703    1.4365947    
     60500   0.94944479     1.3977937      0.023081466    1.4208752    
     61000   0.97474115     1.4350356      0.032382946    1.4674185    
     61500   0.98983229     1.4572531      0.016844861    1.474098     
     62000   1.0264454      1.5111558      0.0046171524   1.5157729    
     62500   1.0564102      1.5552705      0              1.5552705    
     63000   1.060799       1.5617319      0              1.5617319    
     63500   0.99731504     1.4682694      0              1.4682694    
     64000   1.1409175      1.6796841      0.00045484026  1.6801389    
     64500   0.88510546     1.3030719      0.0019329018   1.3050048    
     65000   0.99890738     1.4706136      0.00071619592  1.4713298    
     65500   1.0100224      1.4869774      0              1.4869774    
     66000   1.1499794      1.6930252      0              1.6930252    
     66500   0.99005209     1.4575767      0              1.4575767    
     67000   1.1496793      1.6925834      0              1.6925834    
     67500   1.0623279      1.5639827      0              1.5639827    
     68000   1.1617716      1.7103859      0              1.7103859    
     68500   0.88124708     1.2973915      0              1.2973915    
     69000   0.80031243     1.1782377      0.029445885    1.2076836    
     69500   0.84509831     1.2441725      0.016346863    1.2605194    
     70000   1.1673821      1.7186458      0.0054555668   1.7241014    
     70500   1.1831182      1.741813       0.026380022    1.768193     
     71000   1.114479       1.6407607      0.012173943    1.6529346    
     71500   1.1315378      1.6658751      0.0018221562   1.6676972    
     72000   0.73914141     1.0881804      0              1.0881804    
     72500   1.0459753      1.539908       0              1.539908     
     73000   0.98581354     1.4513366      0.029857387    1.481194     
     73500   1.0671516      1.5710843      0.0015050579   1.5725893    
     74000   1.156328       1.7023717      0              1.7023717    
     74500   1.0313196      1.5183317      0.00058868986  1.5189204    
     75000   1.0664894      1.5701093      0.0030747272   1.5731841    
     75500   1.0340938      1.5224159      0.00037946316  1.5227953    
     76000   1.2212232      1.7979119      0.001327088    1.799239     
     76500   0.87843189     1.2932469      0.0086905364   1.3019375    
     77000   1.0346113      1.5231778      0.0092113916   1.5323892    
     77500   1.0992135      1.6182866      0.020981878    1.6392685    
     78000   1.0725994      1.5791047      0.0085472854   1.587652     
     78500   1.0202936      1.502099       0.00050893653  1.5026079    
     79000   0.97825268     1.4402053      0.0069491687   1.4471545    
     79500   0.88502253     1.3029498      0.0026539575   1.3056038    
     80000   1.1531176      1.6976453      0.0045831349   1.7022285    
     80500   0.91857193     1.352342       0.0012608244   1.3536028    
     81000   0.87419262     1.2870058      0.0058460732   1.2928519    
     81500   1.2810925      1.8860529      0.0072354724   1.8932883    
     82000   0.75765186     1.1154319      0.0048221273   1.120254     
     82500   1.2853926      1.8923836      0.035408574    1.9277921    
     83000   1.0417834      1.5337367      0.0085623107   1.542299     
     83500   0.91893928     1.3528828      0.0058552551   1.3587381    
     84000   1.1023678      1.6229304      0.0099287756   1.6328591    
     84500   0.90822172     1.3371042      0.0046599866   1.3417642    
     85000   0.97525765     1.435796       0.00010327488  1.4358993    
     85500   0.96500131     1.4206964      0.026289072    1.4469854    
     86000   1.1223725      1.6523817      0.0144198      1.6668015    
     86500   0.89425878     1.3165476      0.00087593528  1.3174236    
     87000   1.0971712      1.6152798      0.0058065568   1.6210864    
     87500   1.1902439      1.7523035      0.051959675    1.8042631    
     88000   1.1095931      1.6335676      0.0046957777   1.6382634    
     88500   1.1487546      1.691222       0.012967435    1.7041895    
     89000   0.88197972     1.2984701      0.041224525    1.3396947    
     89500   0.85078278     1.2525413      0.043538688    1.29608      
     90000   0.83046015     1.2226219      0.049284729    1.2719066    
     90500   0.82010232     1.2073729      0.021641332    1.2290142    
     91000   1.2114742      1.7835593      0.002497793    1.7860571    
     91500   0.97540254     1.4360093      3.8861218e-06  1.4360132    
     92000   1.034742       1.5233702      0.0065278587   1.5298981    
     92500   1.1101416      1.6343752      0.00034903291  1.6347242    
     93000   0.87340113     1.2858406      0              1.2858406    
     93500   1.0926242      1.6085857      0.0099685568   1.6185542    
     94000   1.0903027      1.6051679      0.055025881    1.6601938    
     94500   1.0163622      1.4963109      0              1.4963109    
     95000   0.9447228      1.3908419      0              1.3908419    
     95500   1.1536863      1.6984827      0.0064640895   1.7049467    
     96000   1.0476482      1.542371       0.011842984    1.554214     
     96500   0.8816981      1.2980555      2.0021405e-05  1.2980756    
     97000   0.91574468     1.3481797      9.4792104e-05  1.3482745    
     97500   1.1176678      1.6454554      0.0014104506   1.6468659    
     98000   0.96506389     1.4207885      0.0032954386   1.4240839    
     98500   0.93234912     1.3726251      0.0016614066   1.3742865    
     99000   1.0176409      1.4981936      0.035642734    1.5338363    
     99500   1.1221793      1.6520973      0.0022073832   1.6543047    
    100000   1.1325363      1.6673452      0.0095024346   1.6768476    
    100011   1.05117        1.5475559      0.011876527    1.5594324    
Loop time of 0.377211 on 1 procs for 100000 steps with 54 atoms

Performance: 22904962.663 tau/day, 265103.735 timesteps/s, 14.316 Matom-step/s
136.9% CPU use with 1 MPI tasks x 1 OpenMP threads

MPI task timing breakdown:
Section |  min time  |  avg time  |  max time  |%varavg| %total
---------------------------------------------------------------
Pair    | 0.017233   | 0.017233   | 0.017233   |   0.0 |  4.57
Neigh   | 0.0036877  | 0.0036877  | 0.0036877  |   0.0 |  0.98
Comm    | 0.057875   | 0.057875   | 0.057875   |   0.0 | 15.34
Output  | 0.0029027  | 0.0029027  | 0.0029027  |   0.0 |  0.77
Modify  | 0.27518    | 0.27518    | 0.27518    |   0.0 | 72.95
Other   |            | 0.02034    |            |       |  5.39

Nlocal:             54 ave          54 max          54 min
Histogram: 1 0 0 0 0 0 0 0 0 0
Nghost:             67 ave          67 max          67 min
Histogram: 1 0 0 0 0 0 0 0 0 0
Neighs:             28 ave          28 max          28 min
Histogram: 1 0 0 0 0 0 0 0 0 0

Total # of neighbors = 28
Ave neighs/atom = 0.51851852
Neighbor list builds = 275
Dangerous builds = 0

write_data data.${outfile} nocoeff nofix
write_data data.1708713046 nocoeff nofix
System init for write_data ...
Generated 0 of 0 mixed pair_coeff terms from geometric mixing rule
Total wall time: 0:00:00
