LAMMPS (21 Nov 2023)
OMP_NUM_THREADS environment is not set. Defaulting to 1 thread. (src/comm.cpp:98)
  using 1 OpenMP thread(s) per MPI task
###variable outfile string L15.17
###variable L equal 15.17

units lj

newton off
atom_style      sphere
boundary        p p p
comm_modify     mode single vel yes


region      boxid block 0.0     $L      0.0       $L      0.0       $L
region      boxid block 0.0     8.269402402813594      0.0       $L      0.0       $L
region      boxid block 0.0     8.269402402813594      0.0       8.269402402813594      0.0       $L
region      boxid block 0.0     8.269402402813594      0.0       8.269402402813594      0.0       8.269402402813594
#create_box  1 boxid
include create_box.in
create_box 1 boxid
Created orthogonal box = (0 0 0) to (8.2694024 8.2694024 8.2694024)
  1 by 1 by 1 MPI processor grid


######
include create_np.in
create_atoms 1 random 54 7471 boxid
Created 54 atoms
  using lattice units in orthogonal box = (0 0 0) to (8.2694024 8.2694024 8.2694024)
  create_atoms CPU = 0.000 seconds
velocity    all create 1.0 87287 dist gaussian

#####
include particles.in
set type 1 diameter 1.0
Setting atom values ...
  54 settings made for diameter
set type 1 mass 26.0
Setting atom values ...
  54 settings made for mass

###
fix 1 all langevin 1.0 1.0 0.1 12345
fix 2 all nve/sphere

###
pair_style lj/cut 1.
include pots_lj_lan.in
pair_coeff 1 1 10.0 1.0 1.122462048309373
pair_modify shift yes



minimize          1.0e-4 1.0e-6 1000 1000
Generated 0 of 0 mixed pair_coeff terms from geometric mixing rule
Neighbor list info ...
  update: every = 1 steps, delay = 0 steps, check = yes
  max neighbors/atom: 2000, page size: 100000
  master list distance cutoff = 1.422462
  ghost atom cutoff = 1.422462
  binsize = 0.71123102, bins = 12 12 12
  1 neighbor lists, perpetual/occasional/extra = 1 0 0
  (1) pair lj/cut, perpetual
      attributes: half, newton off
      pair build: half/bin/newtoff
      stencil: full/bin/3d
      bin: standard
Per MPI rank memory allocation (min/avg/max) = 5.451 | 5.451 | 5.451 Mbytes
   Step          Temp          E_pair         E_mol          TotEng         Press     
         0   49.656342      9048.4831      0              9121.5883      3492.7843    
        10   49.656342      3.8547895e-07  0              73.105171      4.6541219    
Loop time of 0.000158076 on 1 procs for 10 steps with 54 atoms

605.4% CPU use with 1 MPI tasks x 1 OpenMP threads

Minimization stats:
  Stopping criterion = quadratic factors are zero
  Energy initial, next-to-last, final = 
      9048.48310224753 3.85478954731708e-07 3.85478954731708e-07
  Force two-norm initial, final = 11281954 0.21850042
  Force max component initial, final = 6413855.8 0.11267677
  Final line search alpha, max atom move = 0.85769148 0.096641904
  Iterations, force evaluations = 10 25

MPI task timing breakdown:
Section |  min time  |  avg time  |  max time  |%varavg| %total
---------------------------------------------------------------
Pair    | 1.2464e-05 | 1.2464e-05 | 1.2464e-05 |   0.0 |  7.88
Neigh   | 7.3197e-05 | 7.3197e-05 | 7.3197e-05 |   0.0 | 46.30
Comm    | 2.4408e-05 | 2.4408e-05 | 2.4408e-05 |   0.0 | 15.44
Output  | 0          | 0          | 0          |   0.0 |  0.00
Modify  | 0          | 0          | 0          |   0.0 |  0.00
Other   |            | 4.801e-05  |            |       | 30.37

Nlocal:             54 ave          54 max          54 min
Histogram: 1 0 0 0 0 0 0 0 0 0
Nghost:             56 ave          56 max          56 min
Histogram: 1 0 0 0 0 0 0 0 0 0
Neighs:             39 ave          39 max          39 min
Histogram: 1 0 0 0 0 0 0 0 0 0

Total # of neighbors = 39
Ave neighs/atom = 0.72222222
Neighbor list builds = 4
Dangerous builds = 0

thermo_style custom step temp ke pe etotal
thermo 500
timestep 0.001
#dump    id all custom 5000 out_lan_${outfile}.lammpstrj id type radius mass xu yu zu vx vy vz fx fy fz
dump    id all custom 5000 out_lan_${outfile}.lammpstrj id type radius mass x y z
dump    id all custom 5000 out_lan_1708799253.lammpstrj id type radius mass x y z
run 100000
Generated 0 of 0 mixed pair_coeff terms from geometric mixing rule
Per MPI rank memory allocation (min/avg/max) = 4.326 | 4.326 | 4.326 Mbytes
   Step          Temp          KinEng         PotEng         TotEng    
        10   49.656342      73.105171      3.8547895e-07  73.105171    
       500   0.90822252     1.3371054      0.0059598369   1.3430652    
      1000   1.1630035      1.7121995      0.0052302777   1.7174298    
      1500   1.2229126      1.8003991      0.067528578    1.8679277    
      2000   1.151733       1.6956069      0.099448061    1.795055     
      2500   1.2537386      1.8457818      0.036525201    1.882307     
      3000   0.76845223     1.1313324      0.011282495    1.1426149    
      3500   1.1867609      1.7471757      0.026036221    1.7732119    
      4000   1.168353       1.7200752      0.049457744    1.7695329    
      4500   1.2015116      1.768892       0.029701896    1.7985939    
      5000   1.0553746      1.5537459      0.0092616232   1.5630075    
      5500   1.1086204      1.6321356      0.0025916693   1.6347272    
      6000   0.99364505     1.4628663      0.077830456    1.5406968    
      6500   0.92471404     1.3613846      0.025159456    1.386544     
      7000   1.0388476      1.5294145      0.012865047    1.5422795    
      7500   0.89454074     1.3169628      0.034209948    1.3511727    
      8000   0.98248429     1.4464352      0.015685533    1.4621207    
      8500   0.93040227     1.3697589      0.03678973     1.4065486    
      9000   1.0843977      1.5964743      0.077675731    1.6741501    
      9500   1.0658005      1.5690951      0.063095206    1.6321903    
     10000   1.0629008      1.5648262      0.025374433    1.5902006    
     10500   1.1597198      1.7073653      0.060592047    1.7679574    
     11000   0.9561136      1.4076117      0.067511026    1.4751227    
     11500   0.91543536     1.3477243      0.0027096169   1.3504339    
     12000   1.114708       1.641098       0.058192747    1.6992907    
     12500   1.0732488      1.5800608      0.080980875    1.6610417    
     13000   0.98810059     1.4547037      0.007001068    1.4617047    
     13500   0.95499538     1.4059654      0.004776885    1.4107423    
     14000   1.0754343      1.5832783      0.0040541586   1.5873324    
     14500   0.9589868      1.4118417      0.02090108     1.4327428    
     15000   1.0543721      1.55227        0              1.55227      
     15500   0.9200213      1.3544758      0.064125526    1.4186013    
     16000   1.0186814      1.4997254      0.0037370257   1.5034624    
     16500   0.9250498      1.3618789      0              1.3618789    
     17000   1.2179816      1.7931395      3.1002476e-05  1.7931705    
     17500   0.88600902     1.3044022      0.0063597595   1.3107619    
     18000   1.0094581      1.4861467      0.0090408283   1.4951875    
     18500   0.86481123     1.2731943      0.0052523859   1.2784467    
     19000   1.079319       1.5889974      0.0053353251   1.5943328    
     19500   1.0762703      1.5845091      0              1.5845091    
     20000   0.9145822      1.3464682      0.027599102    1.3740673    
     20500   0.98374431     1.4482902      0.012268746    1.460559     
     21000   0.9464811      1.3934305      0.00039659091  1.3938271    
     21500   1.1508309      1.6942788      0.011312157    1.7055909    
     22000   1.1027052      1.6234272      0.066730677    1.6901578    
     22500   0.98423573     1.4490137      0.010106047    1.4591198    
     23000   1.0305785      1.5172406      0.026140328    1.5433809    
     23500   1.1025409      1.6231852      0.052700568    1.6758858    
     24000   0.89355725     1.3155148      0.00069431148  1.3162092    
     24500   1.0651987      1.5682092      0.0007621852   1.5689714    
     25000   1.1083919      1.6317991      0.0053591444   1.6371583    
     25500   0.84752014     1.247738       0.0045246443   1.2522626    
     26000   0.89846662     1.3227425      0              1.3227425    
     26500   1.0779679      1.5870083      0.0022699492   1.5892782    
     27000   0.98793805     1.4544644      0              1.4544644    
     27500   0.98502999     1.450183       0              1.450183     
     28000   1.3239201      1.9491046      0.001800279    1.9509048    
     28500   1.1695712      1.7218687      0.00073427313  1.7226029    
     29000   1.0132978      1.4917995      0.0034341076   1.4952336    
     29500   1.1065314      1.6290601      0.0037165492   1.6327766    
     30000   1.0326983      1.5203614      0.0088606908   1.5292221    
     30500   1.1249413      1.6561636      0.034809615    1.6909732    
     31000   1.0240422      1.5076177      0.013238973    1.5208567    
     31500   0.96259565     1.4171547      0.020518104    1.4376728    
     32000   1.0255348      1.5098152      0.062950341    1.5727655    
     32500   0.97015621     1.4282855      0.021961311    1.4502468    
     33000   1.2476767      1.8368574      0.024722846    1.8615803    
     33500   0.90890368     1.3381082      7.158842e-06   1.3381153    
     34000   0.91467991     1.3466121      6.071607e-05   1.3466728    
     34500   1.0592964      1.5595197      1.6835375e-06  1.5595214    
     35000   0.89277384     1.3143615      0.0048079554   1.3191694    
     35500   0.96192836     1.4161723      0              1.4161723    
     36000   1.2002649      1.7670566      0.023052198    1.7901088    
     36500   1.0998675      1.6192493      0.0026475039   1.6218969    
     37000   1.0209439      1.5030564      0              1.5030564    
     37500   0.89969708     1.324554       0              1.324554     
     38000   0.98470434     1.4497036      0              1.4497036    
     38500   1.0914516      1.6068593      0.03702338     1.6438827    
     39000   1.1937992      1.7575378      0              1.7575378    
     39500   1.0346714      1.5232662      0.0012446117   1.5245108    
     40000   1.1391965      1.6771504      0.0018136072   1.678964     
     40500   1.1248655      1.656052       0.011343326    1.6673953    
     41000   0.94792115     1.3955506      0.022583859    1.4181344    
     41500   1.0854827      1.5980718      0              1.5980718    
     42000   0.79429673     1.1693813      0.0062834837   1.1756648    
     42500   0.99509433     1.465          0.0031719088   1.4681719    
     43000   0.80218777     1.1809987      0.021559381    1.202558     
     43500   1.0009896      1.4736791      0.00070913408  1.4743883    
     44000   1.0976913      1.6160455      0.049418504    1.665464     
     44500   0.70626738     1.0397825      0.013658466    1.053441     
     45000   0.98030763     1.4432307      0.016118126    1.4593488    
     45500   1.0515626      1.5481339      0.0064589018   1.5545928    
     46000   0.94360337     1.3891938      0              1.3891938    
     46500   1.0923025      1.608112       0.0035330077   1.611645     
     47000   1.0293791      1.5154747      0.0075825113   1.5230573    
     47500   0.96818035     1.4253766      0              1.4253766    
     48000   1.0794071      1.5891271      1.648263e-05   1.5891436    
     48500   1.0677272      1.5719317      0.00030392265  1.5722357    
     49000   1.1660726      1.716718       0.036233118    1.7529511    
     49500   0.9226455      1.3583392      0.026932427    1.3852716    
     50000   1.0499476      1.5457562      0.028967       1.5747232    
     50500   1.1119113      1.6369805      0.0056561412   1.6426366    
     51000   1.0862642      1.5992223      0.0037521294   1.6029744    
     51500   1.0490869      1.544489       0              1.544489     
     52000   1.0673691      1.5714044      0.038946532    1.610351     
     52500   1.0165599      1.4966021      0.0096100611   1.5062121    
     53000   0.96123577     1.4151527      0.010612445    1.4257651    
     53500   0.84758683     1.2478362      0.039371899    1.2872081    
     54000   0.98190222     1.4455783      0.00058407666  1.4461623    
     54500   1.1906421      1.7528897      0.0021076176   1.7549974    
     55000   0.99880049     1.4704563      0.049584821    1.5200411    
     55500   1.0244446      1.5082101      0.0013806212   1.5095907    
     56000   0.88193443     1.2984035      0.00195406     1.3003575    
     56500   0.83606308     1.2308706      0.03340816     1.2642788    
     57000   0.98078909     1.4439395      0.028170615    1.4721101    
     57500   1.0689614      1.5737487      0.020644545    1.5943933    
     58000   0.86794406     1.2778065      0.043274304    1.3210808    
     58500   1.1066411      1.6292216      0.014402995    1.6436246    
     59000   1.1366532      1.6734061      0.034468631    1.7078747    
     59500   1.0413256      1.5330626      0.022506323    1.555569     
     60000   0.94176165     1.3864824      0.013754876    1.4002373    
     60500   0.9344914      1.375779       0.099713851    1.4754929    
     61000   1.024799       1.5087318      0.0054638863   1.5141957    
     61500   1.0166471      1.4967304      0.019879367    1.5166098    
     62000   0.99874648     1.4703768      0.014524324    1.4849011    
     62500   1.0595762      1.5599316      0.049629334    1.6095609    
     63000   1.0863925      1.5994111      0.023633848    1.623045     
     63500   0.95696254     1.4088615      0.028597191    1.4374587    
     64000   1.1099279      1.6340605      0.0082758321   1.6423363    
     64500   0.8864544      1.3050579      0.068492416    1.3735503    
     65000   1.0020498      1.47524        0.00047445755  1.4757144    
     65500   1.0615827      1.5628856      0.038197438    1.601083     
     66000   1.1184262      1.6465719      0.00070296216  1.6472748    
     66500   1.0165181      1.4965406      0.048448672    1.5449893    
     67000   1.1568969      1.7032093      0.0040028555   1.7072121    
     67500   1.0529237      1.5501377      0.0024230999   1.5525608    
     68000   1.1658629      1.7164093      0.036535665    1.7529449    
     68500   0.85914103     1.2648465      0.050520372    1.3153669    
     69000   0.82250846     1.2109152      0.014023557    1.2249388    
     69500   0.84398494     1.2425334      0.0014493859   1.2439828    
     70000   1.1331607      1.6682644      0.010598439    1.6788628    
     70500   1.2043665      1.7730952      0.0079152832   1.7810105    
     71000   1.12391        1.6546453      0.067209037    1.7218543    
     71500   1.1261799      1.6579871      0.0033747986   1.6613619    
     72000   0.71168116     1.0477528      0.039664617    1.0874174    
     72500   1.024514       1.5083122      0.030978666    1.5392909    
     73000   0.95629532     1.4078792      0.087921459    1.4958007    
     73500   1.0710767      1.5768629      0.070203432    1.6470663    
     74000   1.1634752      1.7128941      0.004981594    1.7178757    
     74500   1.1943851      1.7584002      0.0065675624   1.7649678    
     75000   1.0506355      1.5467689      0.0043740998   1.551143     
     75500   1.0537293      1.5513237      0.0071354873   1.5584592    
     76000   1.2382937      1.8230436      0.0082859341   1.8313295    
     76500   0.8909334      1.311652       0.05350197     1.3651539    
     77000   1.0046008      1.4789956      0.040219719    1.5192153    
     77500   1.110205       1.6344685      0.0022365243   1.636705     
     78000   1.039073       1.5297464      0.041069632    1.5708161    
     78500   0.97337364     1.4330223      0.014606447    1.4476288    
     79000   0.98861175     1.4554562      0.012873293    1.4683295    
     79500   0.8941082      1.316326       0.041453095    1.3577791    
     80000   1.1338001      1.6692057      0.050025646    1.7192313    
     80500   0.89839382     1.3226353      0.069486445    1.3921218    
     81000   0.89860961     1.322953       0.030149105    1.3531021    
     81500   1.2836177      1.8897705      0.0067097989   1.8964803    
     82000   0.76910479     1.1322932      0.047806551    1.1800997    
     82500   1.2556123      1.8485403      0.023204471    1.8717448    
     83000   1.0291597      1.5151518      0.017310538    1.5324624    
     83500   0.88883226     1.3085586      0.05642969     1.3649883    
     84000   1.1055334      1.6275908      0.005659207    1.6332501    
     84500   0.92499391     1.3617966      0.060819406    1.422616     
     85000   0.97074879     1.4291579      0.014778886    1.4439368    
     85500   1.0134997      1.4920968      0.010006242    1.502103     
     86000   1.0618624      1.5632974      0.051214207    1.6145116    
     86500   0.88637474     1.3049406      0.011791028    1.3167316    
     87000   1.1364178      1.6730595      0.02348449     1.696544     
     87500   1.239359       1.8246119      0.0084909857   1.8331029    
     88000   1.120663       1.649865       0.010074204    1.6599392    
     88500   1.1623942      1.7113026      0.045059048    1.7563616    
     89000   0.88040065     1.2961454      0.019222726    1.3153681    
     89500   0.85114708     1.2530776      0.023181186    1.2762588    
     90000   0.84169539     1.2391627      0.041645837    1.2808085    
     90500   0.85674642     1.2613211      0.040142478    1.3014636    
     91000   1.1835521      1.7424517      0.042392734    1.7848444    
     91500   0.97323001     1.4328108      0.037334532    1.4701454    
     92000   1.0176483      1.4982044      0.032153255    1.5303576    
     92500   1.0868508      1.6000859      0.042719661    1.6428056    
     93000   0.88802767     1.3073741      0.068458853    1.3758329    
     93500   1.0878901      1.601616       0.01547492     1.6170909    
     94000   1.0667291      1.5704623      0.047144337    1.6176066    
     94500   1.0515945      1.5481808      0.04908393     1.5972647    
     95000   0.93335432     1.374105       0.028006972    1.4021119    
     95500   1.1510494      1.6946005      0.05233511     1.7469356    
     96000   1.0369628      1.5266397      0.04436896     1.5710086    
     96500   0.88819392     1.3076188      0.066748555    1.3743674    
     97000   0.90190925     1.3278108      0.018474182    1.346285     
     97500   1.1350912      1.6711065      0.074902273    1.7460087    
     98000   1.0004506      1.4728856      0.0035548586   1.4764405    
     98500   0.94618409     1.3929932      0.0091058918   1.4020991    
     99000   1.0334555      1.5214762      0.08339757     1.6048737    
     99500   0.98666504     1.4525902      0.0017673597   1.4543576    
    100000   1.1412103      1.6801152      0.019415869    1.6995311    
    100010   1.0593765      1.5596377      0.017925923    1.5775636    
Loop time of 0.363948 on 1 procs for 100000 steps with 54 atoms

Performance: 23739626.220 tau/day, 274764.192 timesteps/s, 14.837 Matom-step/s
162.6% CPU use with 1 MPI tasks x 1 OpenMP threads

MPI task timing breakdown:
Section |  min time  |  avg time  |  max time  |%varavg| %total
---------------------------------------------------------------
Pair    | 0.018441   | 0.018441   | 0.018441   |   0.0 |  5.07
Neigh   | 0.0036476  | 0.0036476  | 0.0036476  |   0.0 |  1.00
Comm    | 0.046014   | 0.046014   | 0.046014   |   0.0 | 12.64
Output  | 0.0027067  | 0.0027067  | 0.0027067  |   0.0 |  0.74
Modify  | 0.27315    | 0.27315    | 0.27315    |   0.0 | 75.05
Other   |            | 0.01999    |            |       |  5.49

Nlocal:             54 ave          54 max          54 min
Histogram: 1 0 0 0 0 0 0 0 0 0
Nghost:             48 ave          48 max          48 min
Histogram: 1 0 0 0 0 0 0 0 0 0
Neighs:             28 ave          28 max          28 min
Histogram: 1 0 0 0 0 0 0 0 0 0

Total # of neighbors = 28
Ave neighs/atom = 0.51851852
Neighbor list builds = 270
Dangerous builds = 0

write_data data.${outfile} nocoeff nofix
write_data data.1708799253 nocoeff nofix
System init for write_data ...
Generated 0 of 0 mixed pair_coeff terms from geometric mixing rule
Total wall time: 0:00:00
