LAMMPS (21 Nov 2023)
OMP_NUM_THREADS environment is not set. Defaulting to 1 thread. (src/comm.cpp:98)
  using 1 OpenMP thread(s) per MPI task
###variable outfile string L15.17
###variable L equal 15.17

units lj

newton off
atom_style      sphere
boundary        p p p
comm_modify     mode single vel yes


region      boxid block 0.0     $L      0.0       $L      0.0       $L
region      boxid block 0.0     4.836      0.0       $L      0.0       $L
region      boxid block 0.0     4.836      0.0       4.836      0.0       $L
region      boxid block 0.0     4.836      0.0       4.836      0.0       4.836
#create_box  1 boxid
include create_box.in
create_box 1 boxid
Created orthogonal box = (0 0 0) to (4.836 4.836 4.836)
  1 by 1 by 1 MPI processor grid


######
include create_np.in
create_atoms 1 random 54 5182 boxid
Created 54 atoms
  using lattice units in orthogonal box = (0 0 0) to (4.836 4.836 4.836)
  create_atoms CPU = 0.000 seconds
velocity    all create 1.0 87287 dist gaussian

#####
include particles.in
set type 1 diameter 1.0
Setting atom values ...
  54 settings made for diameter
set type 1 mass 26.0
Setting atom values ...
  54 settings made for mass

###
fix 1 all langevin 1.0 1.0 0.1 12345
fix 2 all nve/sphere

###
pair_style lj/cut 1.
include pots_lj_lan.in
pair_coeff 1 1 10.0 1.0 1.122462048309373
pair_modify shift yes



minimize          1.0e-4 1.0e-6 1000 1000
Generated 0 of 0 mixed pair_coeff terms from geometric mixing rule
Neighbor list info ...
  update: every = 1 steps, delay = 0 steps, check = yes
  max neighbors/atom: 2000, page size: 100000
  master list distance cutoff = 1.422462
  ghost atom cutoff = 1.422462
  binsize = 0.71123102, bins = 7 7 7
  1 neighbor lists, perpetual/occasional/extra = 1 0 0
  (1) pair lj/cut, perpetual
      attributes: half, newton off
      pair build: half/bin/newtoff
      stencil: full/bin/3d
      bin: standard
Per MPI rank memory allocation (min/avg/max) = 5.44 | 5.44 | 5.44 Mbytes
   Step          Temp          E_pair         E_mol          TotEng         Press     
         0   49.656342      4517869.7      0              4517942.8      8631592.4    
        28   49.656342      0.0001820471   0              73.105353      23.298104    
Loop time of 0.000749583 on 1 procs for 28 steps with 54 atoms

355.5% CPU use with 1 MPI tasks x 1 OpenMP threads

Minimization stats:
  Stopping criterion = quadratic factors are zero
  Energy initial, next-to-last, final = 
      4517869.65241428 0.000182047099463304 0.000182047099463304
  Force two-norm initial, final = 1.3925008e+10 4.7353413
  Force max component initial, final = 9.0879723e+09 2.0915509
  Final line search alpha, max atom move = 0.0029882133 0.00625
  Iterations, force evaluations = 28 78

MPI task timing breakdown:
Section |  min time  |  avg time  |  max time  |%varavg| %total
---------------------------------------------------------------
Pair    | 0.00013668 | 0.00013668 | 0.00013668 |   0.0 | 18.23
Neigh   | 0.00031915 | 0.00031915 | 0.00031915 |   0.0 | 42.58
Comm    | 0.00018117 | 0.00018117 | 0.00018117 |   0.0 | 24.17
Output  | 0          | 0          | 0          |   0.0 |  0.00
Modify  | 0          | 0          | 0          |   0.0 |  0.00
Other   |            | 0.0001126  |            |       | 15.02

Nlocal:             54 ave          54 max          54 min
Histogram: 1 0 0 0 0 0 0 0 0 0
Nghost:            166 ave         166 max         166 min
Histogram: 1 0 0 0 0 0 0 0 0 0
Neighs:            188 ave         188 max         188 min
Histogram: 1 0 0 0 0 0 0 0 0 0

Total # of neighbors = 188
Ave neighs/atom = 3.4814815
Neighbor list builds = 10
Dangerous builds = 1

thermo_style custom step temp ke pe etotal
thermo 500
timestep 0.001
#dump    id all custom 5000 out_lan_${outfile}.lammpstrj id type radius mass xu yu zu vx vy vz fx fy fz
dump    id all custom 5000 out_lan_${outfile}.lammpstrj id type radius mass x y z
dump    id all custom 5000 out_lan_1708716119.lammpstrj id type radius mass x y z
run 100000
Generated 0 of 0 mixed pair_coeff terms from geometric mixing rule
Per MPI rank memory allocation (min/avg/max) = 4.315 | 4.315 | 4.315 Mbytes
   Step          Temp          KinEng         PotEng         TotEng    
        28   49.656342      73.105171      0.0001820471   73.105353    
       500   1.0746938      1.5821882      0.37671569     1.9589038    
      1000   1.1187512      1.6470503      0.37302392     2.0200742    
      1500   1.1415755      1.6806528      0.21198849     1.8926413    
      2000   1.1394198      1.6774791      0.20596137     1.8834405    
      2500   1.0662484      1.5697546      0.291021       1.8607756    
      3000   0.96276013     1.4173969      0.20883232     1.6262292    
      3500   1.1083582      1.6317496      0.21946338     1.851213     
      4000   1.0110568      1.4885003      0.13161026     1.6201106    
      4500   1.0741224      1.5813469      0.14126979     1.7226167    
      5000   1.0096949      1.4864953      0.32727484     1.8137701    
      5500   1.0506998      1.5468635      0.13924962     1.6861132    
      6000   0.9281807      1.3664883      0.24112208     1.6076103    
      6500   0.95847447     1.4110874      0.29332246     1.7044099    
      7000   1.0356525      1.5247106      0.25502127     1.7797318    
      7500   0.86085393     1.2673683      0.26171075     1.529079     
      8000   1.131277       1.6654912      0.20395044     1.8694416    
      8500   0.98565359     1.4511011      0.15725466     1.6083558    
      9000   0.9978282      1.4690248      0.1957696      1.6647944    
      9500   0.94087389     1.3851754      0.24800471     1.6331802    
     10000   1.1526732      1.696991       0.24680554     1.9437966    
     10500   1.0446391      1.5379408      0.28003068     1.8179715    
     11000   0.92641479     1.3638884      0.30900961     1.672898     
     11500   0.7657708      1.1273848      0.20828422     1.335669     
     12000   1.0682197      1.5726568      0.22843017     1.801087     
     12500   1.1171132      1.6446388      0.17350814     1.818147     
     13000   0.93532978     1.3770133      0.24585687     1.6228702    
     13500   0.83003876     1.2220015      0.20055497     1.4225565    
     14000   0.89689711     1.3204319      0.33011688     1.6505487    
     14500   0.93939572     1.3829993      0.080890068    1.4638893    
     15000   1.1043979      1.6259191      0.27900532     1.9049244    
     15500   0.92583518     1.3630351      0.20695375     1.5699889    
     16000   1.0522283      1.5491139      0.21978635     1.7689003    
     16500   0.72888054     1.0730741      0.24581274     1.3188869    
     17000   1.1943984      1.7584198      0.23462332     1.9930432    
     17500   0.96669566     1.4231908      0.22979029     1.6529811    
     18000   1.0502586      1.5462141      0.21286018     1.7590743    
     18500   0.97700873     1.438374       0.19176232     1.6301363    
     19000   1.0083329      1.48449        0.24837664     1.7328667    
     19500   1.0018171      1.4748974      0.20686221     1.6817597    
     20000   1.0196624      1.5011696      0.11966444     1.6208341    
     20500   0.93562704     1.3774509      0.19833154     1.5757825    
     21000   1.0133809      1.4919218      0.27079867     1.7627205    
     21500   0.96138116     1.4153667      0.1454815      1.5608482    
     22000   1.1871382      1.7477312      0.21479043     1.9625216    
     22500   0.96801626     1.425135       0.18249355     1.6076286    
     23000   1.0025285      1.4759447      0.18117985     1.6571246    
     23500   1.0271098      1.5121339      0.25558496     1.7677189    
     24000   0.94997303     1.3985714      0.10709673     1.5056681    
     24500   1.1982134      1.7640365      0.10938538     1.8734218    
     25000   0.96476798     1.4203529      0.13822233     1.5585752    
     25500   0.83053884     1.2227377      0.1369825      1.3597202    
     26000   0.9614618      1.4154854      0.13786825     1.5533537    
     26500   1.0379725      1.5281262      0.11011168     1.6382378    
     27000   1.0805623      1.5908278      0.26386944     1.8546972    
     27500   0.90287443     1.3292318      0.2420557      1.5712875    
     28000   1.1897124      1.751521       0.11690422     1.8684252    
     28500   1.0814378      1.5921167      0.16325605     1.7553728    
     29000   1.011838       1.4896503      0.10657511     1.5962255    
     29500   0.97598177     1.4368621      0.21114467     1.6480067    
     30000   1.0802738      1.5904031      0.13981314     1.7302163    
     30500   1.0855927      1.5982337      0.12737406     1.7256077    
     31000   1.1800681      1.7373225      0.11038633     1.8477088    
     31500   1.0746893      1.5821815      0.18550326     1.7676848    
     32000   1.0404944      1.531839       0.1824701      1.7143091    
     32500   0.93441165     1.3756616      0.13227019     1.5079318    
     33000   1.1467171      1.6882224      0.22974481     1.9179672    
     33500   1.0723152      1.5786863      0.21360046     1.7922868    
     34000   1.016569       1.4966154      0.10132375     1.5979392    
     34500   0.87205328     1.2838562      0.21940917     1.5032654    
     35000   0.96443551     1.4198634      0.13031084     1.5501742    
     35500   0.92188849     1.3572247      0.21439425     1.571619     
     36000   1.111884       1.6369404      0.12029007     1.7572305    
     36500   1.044942       1.5383869      0.17283649     1.7112234    
     37000   1.1382958      1.6758244      0.16343846     1.8392628    
     37500   0.84615336     1.2457258      0.25019991     1.4959257    
     38000   1.0516068      1.548199       0.091068963    1.6392679    
     38500   1.0599876      1.5605373      0.10233561     1.6628729    
     39000   1.1784936      1.7350044      0.14239416     1.8773986    
     39500   1.016244       1.496137       0.09684962     1.5929866    
     40000   1.1624406      1.7113709      0.095877585    1.8072485    
     40500   1.1792761      1.7361564      0.19477134     1.9309278    
     41000   1.2179554      1.793101       0.2684831      2.0615841    
     41500   0.98146007     1.4449273      0.17123931     1.6161666    
     42000   0.87557546     1.2890416      0.20473768     1.4937793    
     42500   1.189147       1.7506887      0.23956611     1.9902548    
     43000   0.90801707     1.3368029      0.15978382     1.4965867    
     43500   0.91734677     1.3505383      0.19003785     1.5405762    
     44000   1.1765849      1.7321944      0.17111745     1.9033118    
     44500   0.76556611     1.1270834      0.082414371    1.2094978    
     45000   0.95505153     1.4060481      0.23136799     1.6374161    
     45500   1.0865133      1.599589       0.17735045     1.7769394    
     46000   0.92619325     1.3635623      0.14420089     1.5077632    
     46500   1.1259327      1.6576231      0.16658636     1.8242095    
     47000   0.99800174     1.4692803      0.2049928      1.6742731    
     47500   1.0244702      1.5082477      0.14838838     1.6566361    
     48000   1.0614332      1.5626656      0.2693191      1.8319847    
     48500   0.94120428     1.3856618      0.56719862     1.9528605    
     49000   1.2766015      1.8794411      0.16395808     2.0433991    
     49500   0.91110221     1.3413449      0.20534956     1.5466945    
     50000   1.0110886      1.4885472      0.16810463     1.6566518    
     50500   0.91032589     1.340202       0.23454982     1.5747518    
     51000   0.99087493     1.4587881      0.2943953      1.7531834    
     51500   1.0635211      1.5657394      0.11407393     1.6798133    
     52000   1.0570996      1.5562856      0.18776945     1.744055     
     52500   0.92479783     1.3615079      0.17801829     1.5395262    
     53000   0.97579182     1.4365824      0.15210823     1.5886906    
     53500   0.88926898     1.3092016      0.093330659    1.4025322    
     54000   0.94457461     1.3906237      0.28297748     1.6736012    
     54500   1.1439476      1.6841451      0.22333139     1.9074765    
     55000   0.91759085     1.3508976      0.13442383     1.4853215    
     55500   1.0025059      1.4759115      0.10721006     1.5831215    
     56000   0.9250266      1.3618447      0.079288501    1.4411332    
     56500   0.99229799     1.4608832      0.16959323     1.6304764    
     57000   0.95095579     1.4000182      0.14692182     1.5469401    
     57500   1.1163136      1.6434617      0.15691077     1.8003725    
     58000   0.97008253     1.4281771      0.27374965     1.7019267    
     58500   1.1798624      1.7370197      0.18566762     1.9226873    
     59000   1.1152188      1.6418499      0.26769921     1.9095492    
     59500   1.054541       1.5525187      0.27495603     1.8274747    
     60000   1.0251356      1.5092274      0.20794543     1.7171728    
     60500   0.90530119     1.3328045      0.19872888     1.5315334    
     61000   1.0684331      1.572971       0.20070174     1.7736727    
     61500   0.89848521     1.3227699      0.13644755     1.4592174    
     62000   0.93105383     1.3707181      0.25926926     1.6299874    
     62500   1.0721607      1.5784588      0.18837196     1.7668308    
     63000   0.93967327     1.3834079      0.19191866     1.5753265    
     63500   1.0362058      1.5255253      0.11969699     1.6452223    
     64000   0.98255437     1.4465384      0.2918435      1.7383819    
     64500   0.97631549     1.4373534      0.079488162    1.5168415    
     65000   1.0362034      1.5255217      0.16103061     1.6865523    
     65500   0.92952245     1.3684636      0.24913172     1.6175953    
     66000   1.027222       1.5122991      0.17458178     1.6868809    
     66500   0.93681462     1.3791993      0.2546883      1.6338876    
     67000   1.1389912      1.6768482      0.20069686     1.877545     
     67500   0.86512128     1.2736508      0.19684227     1.470493     
     68000   1.1510566      1.6946111      0.17615622     1.8707674    
     68500   1.0263267      1.5109809      0.092065989    1.6030469    
     69000   0.94627128     1.3931216      0.31640587     1.7095275    
     69500   0.89100323     1.3117548      0.16491503     1.4766698    
     70000   1.1201853      1.6491617      0.13767591     1.7868376    
     70500   1.0321654      1.5195768      0.21498577     1.7345626    
     71000   0.96448358     1.4199342      0.14735292     1.5672871    
     71500   1.13487        1.6707809      0.20067972     1.8714606    
     72000   0.81839365     1.2048573      0.25865855     1.4635159    
     72500   1.1560221      1.7019214      0.23348915     1.9354106    
     73000   0.91835957     1.3520294      0.11064364     1.462673     
     73500   1.0413985      1.5331699      0.10643029     1.6396002    
     74000   1.0871389      1.60051        0.058997978    1.659508     
     74500   1.1487564      1.6912247      0.23256138     1.9237861    
     75000   0.95718693     1.4091919      0.1477152      1.5569071    
     75500   1.2039029      1.7724125      0.25783877     2.0302513    
     76000   1.2353485      1.8187075      0.16312906     1.9818366    
     76500   0.94855283     1.3964806      0.27450089     1.6709814    
     77000   1.1716185      1.7248828      0.18758484     1.9124676    
     77500   1.1136196      1.6394956      0.16350698     1.8030026    
     78000   1.0427727      1.5351931      0.24625031     1.7814434    
     78500   0.99085245     1.458755       0.20293639     1.6616914    
     79000   1.1329599      1.6679688      0.22151393     1.8894827    
     79500   0.88061364     1.296459       0.1569182      1.4533772    
     80000   1.1921803      1.7551543      0.14565779     1.9008121    
     80500   0.97738338     1.4389255      0.19621777     1.6351433    
     81000   0.78520552     1.155997       0.11379948     1.2697965    
     81500   1.2745938      1.8764854      0.21007817     2.0865635    
     82000   0.91760098     1.3509126      0.12141475     1.4723273    
     82500   1.2366844      1.8206743      0.20479064     2.0254649    
     83000   1.0408768      1.532402       0.22052102     1.752923     
     83500   1.0738073      1.580883       0.27143399     1.852317     
     84000   0.97777221     1.439498       0.18061907     1.620117     
     84500   0.87471997     1.2877822      0.34630568     1.6340879    
     85000   0.91251304     1.343422       0.30622157     1.6496436    
     85500   0.91800795     1.3515117      0.26491966     1.6164314    
     86000   0.97261368     1.4319035      0.21135904     1.6432625    
     86500   0.78635008     1.1576821      0.19957044     1.3572525    
     87000   1.1338006      1.6692064      0.16292436     1.8321308    
     87500   1.1418974      1.6811267      0.22423317     1.9053599    
     88000   1.1351909      1.6712533      0.15596848     1.8272218    
     88500   1.1943848      1.7583998      0.16756335     1.9259631    
     89000   0.9808744      1.4440651      0.23706552     1.6811306    
     89500   0.97030892     1.4285104      0.23384842     1.6623588    
     90000   0.81158106     1.1948277      0.23254775     1.4273754    
     90500   0.98405123     1.4487421      0.13446238     1.5832045    
     91000   1.0076945      1.4835503      0.13244939     1.6159996    
     91500   1.0115291      1.4891956      0.12768608     1.6168817    
     92000   0.96774638     1.4247377      0.23210315     1.6568409    
     92500   0.95891782     1.4117401      0.24853228     1.6602724    
     93000   0.80312949     1.1823851      0.26293082     1.4453159    
     93500   1.0539887      1.5517055      0.15809528     1.7098008    
     94000   1.0341418      1.5224866      0.19591564     1.7184022    
     94500   0.93720861     1.3797793      0.26989186     1.6496712    
     95000   1.1052116      1.627117       0.15720015     1.7843172    
     95500   1.1991538      1.7654209      0.17432568     1.9397466    
     96000   1.0918026      1.607376       0.1576096      1.7649856    
     96500   1.0000809      1.4723414      0.16133358     1.6336749    
     97000   0.92128442     1.3563354      0.21480228     1.5711377    
     97500   1.0476068      1.54231        0.33140156     1.8737116    
     98000   0.97210976     1.4311616      0.25555818     1.6867198    
     98500   0.96737777     1.424195       0.20616904     1.6303641    
     99000   0.87731193     1.2915981      0.11751661     1.4091147    
     99500   0.89517704     1.3178995      0.11055089     1.4284504    
    100000   1.1199963      1.6488834      0.1524027      1.8012861    
    100028   1.0252292      1.5093652      0.18860395     1.6979691    
Loop time of 0.555492 on 1 procs for 100000 steps with 54 atoms

Performance: 15553769.244 tau/day, 180020.477 timesteps/s, 9.721 Matom-step/s
134.6% CPU use with 1 MPI tasks x 1 OpenMP threads

MPI task timing breakdown:
Section |  min time  |  avg time  |  max time  |%varavg| %total
---------------------------------------------------------------
Pair    | 0.069752   | 0.069752   | 0.069752   |   0.0 | 12.56
Neigh   | 0.0075553  | 0.0075553  | 0.0075553  |   0.0 |  1.36
Comm    | 0.12322    | 0.12322    | 0.12322    |   0.0 | 22.18
Output  | 0.003229   | 0.003229   | 0.003229   |   0.0 |  0.58
Modify  | 0.32965    | 0.32965    | 0.32965    |   0.0 | 59.34
Other   |            | 0.02209    |            |       |  3.98

Nlocal:             54 ave          54 max          54 min
Histogram: 1 0 0 0 0 0 0 0 0 0
Nghost:            162 ave         162 max         162 min
Histogram: 1 0 0 0 0 0 0 0 0 0
Neighs:            187 ave         187 max         187 min
Histogram: 1 0 0 0 0 0 0 0 0 0

Total # of neighbors = 187
Ave neighs/atom = 3.462963
Neighbor list builds = 258
Dangerous builds = 0

write_data data.${outfile} nocoeff nofix
write_data data.1708716119 nocoeff nofix
System init for write_data ...
Generated 0 of 0 mixed pair_coeff terms from geometric mixing rule
Total wall time: 0:00:00
