LAMMPS (21 Nov 2023)
OMP_NUM_THREADS environment is not set. Defaulting to 1 thread. (src/comm.cpp:98)
  using 1 OpenMP thread(s) per MPI task
###variable outfile string L15.17
###variable L equal 15.17

units lj

newton off
atom_style      sphere
boundary        p p p
comm_modify     mode single vel yes


region      boxid block 0.0     $L      0.0       $L      0.0       $L
region      boxid block 0.0     4.835975862049408      0.0       $L      0.0       $L
region      boxid block 0.0     4.835975862049408      0.0       4.835975862049408      0.0       $L
region      boxid block 0.0     4.835975862049408      0.0       4.835975862049408      0.0       4.835975862049408
#create_box  1 boxid
include create_box.in
create_box 1 boxid
Created orthogonal box = (0 0 0) to (4.8359759 4.8359759 4.8359759)
  1 by 1 by 1 MPI processor grid


######
include create_np.in
create_atoms 1 random 54 3400 boxid
Created 54 atoms
  using lattice units in orthogonal box = (0 0 0) to (4.8359759 4.8359759 4.8359759)
  create_atoms CPU = 0.000 seconds
velocity    all create 1.0 87287 dist gaussian

#####
include particles.in
set type 1 diameter 1.0
Setting atom values ...
  54 settings made for diameter
set type 1 mass 26.0
Setting atom values ...
  54 settings made for mass

###
fix 1 all langevin 1.0 1.0 0.1 12345
fix 2 all nve/sphere

###
pair_style lj/cut 1.
include pots_lj_lan.in
pair_coeff 1 1 10.0 1.0 1.122462048309373
pair_modify shift yes



minimize          1.0e-4 1.0e-6 1000 1000
Generated 0 of 0 mixed pair_coeff terms from geometric mixing rule
Neighbor list info ...
  update: every = 1 steps, delay = 0 steps, check = yes
  max neighbors/atom: 2000, page size: 100000
  master list distance cutoff = 1.422462
  ghost atom cutoff = 1.422462
  binsize = 0.71123102, bins = 7 7 7
  1 neighbor lists, perpetual/occasional/extra = 1 0 0
  (1) pair lj/cut, perpetual
      attributes: half, newton off
      pair build: half/bin/newtoff
      stencil: full/bin/3d
      bin: standard
Per MPI rank memory allocation (min/avg/max) = 5.439 | 5.439 | 5.439 Mbytes
   Step          Temp          E_pair         E_mol          TotEng         Press     
         0   49.656342      5.8461454e+09  0              5.8461455e+09  1.1165397e+10
        43   49.656342      4.4817491e-08  0              73.105171      23.270347    
Loop time of 0.00116434 on 1 procs for 43 steps with 54 atoms

639.6% CPU use with 1 MPI tasks x 1 OpenMP threads

Minimization stats:
  Stopping criterion = quadratic factors are zero
  Energy initial, next-to-last, final = 
      5846145410.25325 4.48174911997038e-08 4.48174911997038e-08
  Force two-norm initial, final = 3.2677793e+13 0.061805688
  Force max component initial, final = 1.9788566e+13 0.036843281
  Final line search alpha, max atom move = 0.125 0.0046054102
  Iterations, force evaluations = 43 215

MPI task timing breakdown:
Section |  min time  |  avg time  |  max time  |%varavg| %total
---------------------------------------------------------------
Pair    | 0.00028386 | 0.00028386 | 0.00028386 |   0.0 | 24.38
Neigh   | 0.00034383 | 0.00034383 | 0.00034383 |   0.0 | 29.53
Comm    | 0.00035185 | 0.00035185 | 0.00035185 |   0.0 | 30.22
Output  | 0          | 0          | 0          |   0.0 |  0.00
Modify  | 0          | 0          | 0          |   0.0 |  0.00
Other   |            | 0.0001848  |            |       | 15.87

Nlocal:             54 ave          54 max          54 min
Histogram: 1 0 0 0 0 0 0 0 0 0
Nghost:            140 ave         140 max         140 min
Histogram: 1 0 0 0 0 0 0 0 0 0
Neighs:            206 ave         206 max         206 min
Histogram: 1 0 0 0 0 0 0 0 0 0

Total # of neighbors = 206
Ave neighs/atom = 3.8148148
Neighbor list builds = 12
Dangerous builds = 0

thermo_style custom step temp ke pe etotal
thermo 500
timestep 0.001
#dump    id all custom 5000 out_lan_${outfile}.lammpstrj id type radius mass xu yu zu vx vy vz fx fy fz
dump    id all custom 5000 out_lan_${outfile}.lammpstrj id type radius mass x y z
dump    id all custom 5000 out_lan_1708800958.lammpstrj id type radius mass x y z
run 100000
Generated 0 of 0 mixed pair_coeff terms from geometric mixing rule
Per MPI rank memory allocation (min/avg/max) = 4.314 | 4.314 | 4.314 Mbytes
   Step          Temp          KinEng         PotEng         TotEng    
        43   49.656342      73.105171      4.4817491e-08  73.105171    
       500   1.0294217      1.5155375      0.51436703     2.0299045    
      1000   1.0893881      1.6038213      0.25293923     1.8567605    
      1500   0.96073109     1.4144097      0.31749673     1.7319064    
      2000   1.0578067      1.5573265      0.37337634     1.9307028    
      2500   1.0669745      1.5708236      0.1764915      1.7473151    
      3000   0.91634022     1.3490564      0.18110042     1.5301568    
      3500   1.2951995      1.9068215      0.20531507     2.1121365    
      4000   0.90309592     1.3295579      0.19578443     1.5253423    
      4500   1.1133809      1.6391441      0.13962685     1.778771     
      5000   1.0224032      1.5052048      0.24904091     1.7542457    
      5500   0.97492353     1.4353041      0.2828131      1.7181172    
      6000   0.94772484     1.3952616      0.16141685     1.5566784    
      6500   1.1448032      1.6854047      0.16659612     1.8520008    
      7000   1.1517695      1.6956607      0.14582725     1.841488     
      7500   1.0169443      1.497168       0.17137001     1.668538     
      8000   1.1113205      1.6361107      0.20284005     1.8389507    
      8500   0.86449995     1.272736       0.17994694     1.452683     
      9000   1.1024444      1.6230432      0.13518928     1.7582325    
      9500   0.90290953     1.3292835      0.15128904     1.4805725    
     10000   1.1449961      1.6856887      0.23909976     1.9247885    
     10500   1.1940089      1.7578464      0.21042733     1.9682737    
     11000   1.0377394      1.5277829      0.28244937     1.8102323    
     11500   0.81332008     1.1973879      0.16923162     1.3666195    
     12000   1.0417807      1.5337327      0.15824643     1.6919791    
     12500   1.1220428      1.6518964      0.2809018      1.9327982    
     13000   1.0225767      1.5054602      0.30237644     1.8078366    
     13500   0.98776139     1.4542043      0.13045594     1.5846602    
     14000   0.8558584      1.2600138      0.22532829     1.485342     
     14500   1.1749773      1.7298278      0.21558997     1.9454177    
     15000   1.1653366      1.7156344      0.19390188     1.9095363    
     15500   0.95980639     1.4130483      0.12721207     1.5402604    
     16000   1.0757729      1.5837767      0.10596108     1.6897378    
     16500   0.68533606     1.008967       0.17735036     1.1863173    
     17000   1.0997334      1.6190519      0.23627142     1.8553234    
     17500   1.2119633      1.7842792      0.16502546     1.9493047    
     18000   0.90166508     1.3274514      0.26286926     1.5903206    
     18500   0.97334106     1.4329743      0.2301323      1.6631066    
     19000   0.88922601     1.3091383      0.22497508     1.5341134    
     19500   0.99695891     1.4677451      0.18237584     1.6501209    
     20000   1.095591       1.6129533      0.1374682      1.7504216    
     20500   0.98164593     1.445201       0.31554042     1.7607414    
     21000   0.93342838     1.374214       0.16986137     1.5440754    
     21500   0.9950699      1.464964       0.22643765     1.6914017    
     22000   0.99900985     1.4707645      0.29742979     1.7681943    
     22500   1.1037169      1.6249165      0.093073512    1.71799      
     23000   0.98189604     1.4455692      0.079796623    1.5253658    
     23500   0.90869453     1.3378003      0.14394002     1.4817403    
     24000   1.003425       1.4772646      0.2163491      1.6936137    
     24500   0.92470406     1.3613699      0.12660494     1.4879748    
     25000   0.82881814     1.2202045      0.071514757    1.2917192    
     25500   0.86977487     1.2805019      0.16370691     1.4442088    
     26000   1.0602063      1.5608593      0.078525453    1.6393848    
     26500   1.0293923      1.5154942      0.21049979     1.725994     
     27000   1.0489264      1.5442527      0.25448856     1.7987413    
     27500   0.94900822     1.397151       0.14289241     1.5400434    
     28000   1.1749864      1.7298412      0.11366739     1.8435085    
     28500   1.2531104      1.844857       0.11412863     1.9589856    
     29000   1.1843962      1.7436945      0.12818326     1.8718777    
     29500   0.98311508     1.4473639      0.19392581     1.6412897    
     30000   1.0724421      1.5788731      0.10481644     1.6836895    
     30500   1.1103899      1.6347407      0.14817186     1.7829125    
     31000   1.0162705      1.496176       0.1454495      1.6416255    
     31500   1.0451004      1.53862        0.1520128      1.6906328    
     32000   0.90907809     1.338365       0.17328993     1.5116549    
     32500   0.97967254     1.4422957      0.14499526     1.587291     
     33000   0.9327526      1.3732191      0.17097025     1.5441894    
     33500   0.96173362     1.4158856      0.10798148     1.5238671    
     34000   1.062569       1.5643378      0.036491822    1.6008296    
     34500   1.0286263      1.5143666      0.17581696     1.6901835    
     35000   1.0512802      1.5477181      0.086291503    1.6340096    
     35500   1.0685647      1.5731648      0.086931479    1.6600962    
     36000   0.99920521     1.4710521      0.10610961     1.5771617    
     36500   0.96505575     1.4207765      0.30278398     1.7235605    
     37000   1.0609198      1.5619098      0.11681666     1.6787264    
     37500   0.96487089     1.4205044      0.14043558     1.56094      
     38000   1.0762876      1.5845345      0.14344297     1.7279775    
     38500   1.0355012      1.5244879      0.25175718     1.776245     
     39000   1.1605415      1.708575       0.042946928    1.7515219    
     39500   0.92872889     1.3672953      0.066300379    1.4335957    
     40000   0.97445447     1.4346135      0.055140201    1.4897537    
     40500   0.90767844     1.3363044      0.0849947      1.4212991    
     41000   1.1995275      1.7659711      0.065655893    1.831627     
     41500   1.0151684      1.4945535      0.15435674     1.6489103    
     42000   1.0795899      1.5893963      0.10035441     1.6897507    
     42500   1.0036784      1.4776376      0.15510925     1.6327468    
     43000   1.0901962      1.605011       0.039244654    1.6442557    
     43500   0.99376206     1.4630386      0.15292631     1.6159649    
     44000   1.187603       1.7484155      0.21774789     1.9661634    
     44500   0.85181092     1.254055       0.083421441    1.3374764    
     45000   0.90670468     1.3348708      0.13818542     1.4730562    
     45500   0.96979761     1.4277576      0.1951887      1.6229463    
     46000   0.97162394     1.4304464      0.14950131     1.5799477    
     46500   1.1961445      1.7609905      0.082343681    1.8433342    
     47000   1.1060173      1.6283033      0.089596113    1.7178994    
     47500   1.0968916      1.6148682      0.13398503     1.7488532    
     48000   1.0515058      1.5480502      0.15935079     1.707401     
     48500   1.1036119      1.624762       0.15743431     1.7821963    
     49000   1.1495286      1.6923615      0.08439986     1.7767614    
     49500   1.0095701      1.4863115      0.17259107     1.6589025    
     50000   0.88602394     1.3044241      0.21109132     1.5155155    
     50500   0.91052002     1.3404878      0.11513032     1.4556181    
     51000   0.93372251     1.374647       0.28504244     1.6596895    
     51500   0.9782423      1.44019        0.14700051     1.5871906    
     52000   1.1664297      1.7172437      0.14354962     1.8607933    
     52500   0.9655194      1.4214591      0.25885966     1.6803188    
     53000   1.0320885      1.5194637      0.090347731    1.6098114    
     53500   0.82593195     1.2159554      0.083711411    1.2996668    
     54000   1.1042585      1.6257139      0.087814491    1.7135284    
     54500   1.3619766      2.0051323      0.13403123     2.1391635    
     55000   0.84498551     1.2440064      0.15319377     1.3972002    
     55500   1.0519094      1.5486443      0.048617401    1.5972617    
     56000   0.89737247     1.3211317      0.14722936     1.4683611    
     56500   0.95352085     1.4037946      0.30254855     1.7063431    
     57000   0.93022972     1.3695049      0.12472012     1.494225     
     57500   0.88985511     1.3100645      0.20371686     1.5137813    
     58000   1.1386559      1.6763545      0.10592028     1.7822748    
     58500   1.2381481      1.8228291      0.058526099    1.8813552    
     59000   1.1471753      1.688897       0.13614114     1.8250381    
     59500   1.136598       1.6733249      0.18700093     1.8603258    
     60000   1.0383757      1.5287197      0.24659637     1.7753161    
     60500   0.91880434     1.3526842      0.12649157     1.4791757    
     61000   1.0459298      1.539841       0.24207529     1.7819163    
     61500   0.86141054     1.2681877      0.17534753     1.4435353    
     62000   1.0397729      1.5307767      0.11604031     1.646817     
     62500   1.1822065      1.7404706      0.16014837     1.900619     
     63000   1.0748945      1.5824835      0.12515943     1.7076429    
     63500   1.0274031      1.5125657      0.17335529     1.685921     
     64000   1.0057812      1.4807334      0.21465136     1.6953847    
     64500   1.033057       1.5208894      0.18288317     1.7037726    
     65000   0.98161484     1.4451552      0.19749798     1.6426532    
     65500   0.90623312     1.3341765      0.18292094     1.5170975    
     66000   1.1750005      1.7298619      0.18661764     1.9164795    
     66500   0.90648479     1.3345471      0.11424649     1.4487935    
     67000   1.0334885      1.5215247      0.10967074     1.6311955    
     67500   0.85193993     1.2542449      0.35577427     1.6100192    
     68000   1.0853077      1.5978142      0.25442655     1.8522407    
     68500   1.0911973      1.606485       0.1270137      1.7334987    
     69000   1.012227       1.490223       0.28805331     1.7782763    
     69500   0.96332496     1.4182284      0.14180862     1.560037     
     70000   1.1365329      1.673229       0.15867821     1.8319072    
     70500   1.1929449      1.75628        0.12152657     1.8778066    
     71000   0.92365875     1.3598309      0.08614327     1.4459742    
     71500   1.1259629      1.6576676      0.11392624     1.7715938    
     72000   0.91237033     1.3432119      0.10570352     1.4489154    
     72500   1.1195466      1.6482214      0.18690302     1.8351244    
     73000   0.90070689     1.3260407      0.19407241     1.5201131    
     73500   1.133184       1.6682986      0.21629605     1.8845947    
     74000   1.091205       1.6064963      0.068796589    1.6752929    
     74500   1.2372843      1.8215575      0.10131189     1.9228694    
     75000   1.0614973      1.5627598      0.084068969    1.6468288    
     75500   1.2221906      1.7993362      0.14713497     1.9464711    
     76000   1.3129866      1.933008       0.21006325     2.1430713    
     76500   0.9378009      1.3806513      0.12869531     1.5093466    
     77000   0.99758133     1.4686614      0.1434786      1.61214      
     77500   1.1264383      1.6583675      0.1332031      1.7915706    
     78000   1.0814488      1.5921329      0.11247721     1.7046102    
     78500   0.88982645     1.3100223      0.16915399     1.4791763    
     79000   1.0303042      1.5168368      0.26003387     1.7768707    
     79500   0.90521795     1.332682       0.1761919      1.5088739    
     80000   1.0064745      1.4817542      0.29994867     1.7817029    
     80500   1.0286642      1.5144222      0.15164958     1.6660718    
     81000   0.92565238     1.362766       0.10597094     1.4687369    
     81500   1.1849378      1.7444918      0.11142163     1.8559134    
     82000   0.94041629     1.3845018      0.1368189      1.5213207    
     82500   1.0565728      1.5555099      0.099467147    1.6549771    
     83000   0.98763897     1.454024       0.12075366     1.5747777    
     83500   1.0387915      1.5293319      0.14963454     1.6789665    
     84000   1.1206273      1.6498124      0.098798828    1.7486113    
     84500   0.99910029     1.4708976      0.13757388     1.6084715    
     85000   0.90518483     1.3326332      0.1875278      1.520161     
     85500   1.0545468      1.5525272      0.1279591      1.6804863    
     86000   0.96562149     1.4216094      0.10607358     1.527683     
     86500   0.86232971     1.269541       0.065353697    1.3348947    
     87000   0.95277435     1.4026956      0.081198673    1.4838943    
     87500   1.1033086      1.6243155      0.10209193     1.7264074    
     88000   1.1857411      1.7456744      0.1845668      1.9302412    
     88500   1.0271543      1.5121994      0.24500849     1.7572079    
     89000   0.96233952     1.4167776      0.16891703     1.5856947    
     89500   1.060084       1.5606792      0.1678454      1.7285246    
     90000   0.82766801     1.2185112      0.28792798     1.5064392    
     90500   0.95027328     1.3990134      0.096542282    1.4955557    
     91000   0.88650068     1.305126       0.25822945     1.5633555    
     91500   0.98441238     1.4492738      0.18449052     1.6337643    
     92000   1.0950317      1.61213        0.12066396     1.7327939    
     92500   0.93255808     1.3729327      0.18529193     1.5582247    
     93000   0.93060047     1.3700507      0.16479349     1.5348442    
     93500   1.1277573      1.6603093      0.19251348     1.8528228    
     94000   0.99287137     1.4617273      0.17459514     1.6363224    
     94500   0.96420399     1.4195225      0.14854304     1.5680656    
     95000   1.0422398      1.5344085      0.15708762     1.6914961    
     95500   1.0875087      1.6010545      0.22966158     1.8307161    
     96000   1.1719467      1.725366       0.092242578    1.8176086    
     96500   1.036878       1.5265148      0.18330811     1.7098229    
     97000   1.0618935      1.5633432      0.16300841     1.7263516    
     97500   1.2761173      1.8787282      0.32597521     2.2047034    
     98000   1.0391961      1.5299276      0.1726288      1.7025564    
     98500   1.0159717      1.4957362      0.074198751    1.5699349    
     99000   0.93085376     1.3704236      0.17776358     1.5481872    
     99500   0.9405956      1.3847657      0.18032547     1.5650912    
    100000   1.0231585      1.5063166      0.15043228     1.6567489    
    100043   1.0821122      1.5931097      0.10962607     1.7027357    
Loop time of 0.487009 on 1 procs for 100000 steps with 54 atoms

Performance: 17740962.579 tau/day, 205335.215 timesteps/s, 11.088 Matom-step/s
146.3% CPU use with 1 MPI tasks x 1 OpenMP threads

MPI task timing breakdown:
Section |  min time  |  avg time  |  max time  |%varavg| %total
---------------------------------------------------------------
Pair    | 0.064299   | 0.064299   | 0.064299   |   0.0 | 13.20
Neigh   | 0.0071684  | 0.0071684  | 0.0071684  |   0.0 |  1.47
Comm    | 0.11577    | 0.11577    | 0.11577    |   0.0 | 23.77
Output  | 0.003207   | 0.003207   | 0.003207   |   0.0 |  0.66
Modify  | 0.27586    | 0.27586    | 0.27586    |   0.0 | 56.64
Other   |            | 0.0207     |            |       |  4.25

Nlocal:             54 ave          54 max          54 min
Histogram: 1 0 0 0 0 0 0 0 0 0
Nghost:            168 ave         168 max         168 min
Histogram: 1 0 0 0 0 0 0 0 0 0
Neighs:            186 ave         186 max         186 min
Histogram: 1 0 0 0 0 0 0 0 0 0

Total # of neighbors = 186
Ave neighs/atom = 3.4444444
Neighbor list builds = 257
Dangerous builds = 0

write_data data.${outfile} nocoeff nofix
write_data data.1708800958 nocoeff nofix
System init for write_data ...
Generated 0 of 0 mixed pair_coeff terms from geometric mixing rule
Total wall time: 0:00:00
