LAMMPS (21 Nov 2023)
OMP_NUM_THREADS environment is not set. Defaulting to 1 thread. (src/comm.cpp:98)
  using 1 OpenMP thread(s) per MPI task
###variable outfile string L15.17
###variable L equal 15.17

units lj

newton off
atom_style      sphere
boundary        p p p
comm_modify     mode single vel yes


region      boxid block 0.0     $L      0.0       $L      0.0       $L
region      boxid block 0.0     5.733683388133033      0.0       $L      0.0       $L
region      boxid block 0.0     5.733683388133033      0.0       5.733683388133033      0.0       $L
region      boxid block 0.0     5.733683388133033      0.0       5.733683388133033      0.0       5.733683388133033
#create_box  1 boxid
include create_box.in
create_box 1 boxid
Created orthogonal box = (0 0 0) to (5.7336834 5.7336834 5.7336834)
  1 by 1 by 1 MPI processor grid


######
include create_np.in
create_atoms 1 random 108 8179 boxid
Created 108 atoms
  using lattice units in orthogonal box = (0 0 0) to (5.7336834 5.7336834 5.7336834)
  create_atoms CPU = 0.001 seconds
velocity    all create 1.0 87287 dist gaussian

#####
include particles.in
set type 1 diameter 1.0
Setting atom values ...
  108 settings made for diameter
set type 1 mass 26.0
Setting atom values ...
  108 settings made for mass

###
fix 1 all langevin 1.0 1.0 0.1 12345
fix 2 all nve/sphere

###
pair_style lj/cut 1.
include pots_lj_lan.in
pair_coeff 1 1 10.0 1.0 1.122462048309373
pair_modify shift yes



minimize          1.0e-4 1.0e-6 1000 1000
Generated 0 of 0 mixed pair_coeff terms from geometric mixing rule
Neighbor list info ...
  update: every = 1 steps, delay = 0 steps, check = yes
  max neighbors/atom: 2000, page size: 100000
  master list distance cutoff = 1.422462
  ghost atom cutoff = 1.422462
  binsize = 0.71123102, bins = 9 9 9
  1 neighbor lists, perpetual/occasional/extra = 1 0 0
  (1) pair lj/cut, perpetual
      attributes: half, newton off
      pair build: half/bin/newtoff
      stencil: full/bin/3d
      bin: standard
Per MPI rank memory allocation (min/avg/max) = 5.444 | 5.444 | 5.444 Mbytes
   Step          Temp          E_pair         E_mol          TotEng         Press     
         0   49.656342      1.2160977e+14  0              1.2160977e+14  2.7870908e+14
        49   49.656342      4.4430421e-09  0              73.794842      28.187624    
Loop time of 0.00304309 on 1 procs for 49 steps with 108 atoms

202.1% CPU use with 1 MPI tasks x 1 OpenMP threads

Minimization stats:
  Stopping criterion = linesearch alpha is zero
  Energy initial, next-to-last, final = 
       121609774125335 4.443042098843e-09 4.443042098843e-09
  Force two-norm initial, final = 3.1033317e+18 0.023500269
  Force max component initial, final = 1.6263745e+18 0.015046489
  Final line search alpha, max atom move = 0.001953125 2.9387674e-05
  Iterations, force evaluations = 49 205

MPI task timing breakdown:
Section |  min time  |  avg time  |  max time  |%varavg| %total
---------------------------------------------------------------
Pair    | 0.00088952 | 0.00088952 | 0.00088952 |   0.0 | 29.23
Neigh   | 0.0010318  | 0.0010318  | 0.0010318  |   0.0 | 33.91
Comm    | 0.00067218 | 0.00067218 | 0.00067218 |   0.0 | 22.09
Output  | 0          | 0          | 0          |   0.0 |  0.00
Modify  | 0          | 0          | 0          |   0.0 |  0.00
Other   |            | 0.0004496  |            |       | 14.78

Nlocal:            108 ave         108 max         108 min
Histogram: 1 0 0 0 0 0 0 0 0 0
Nghost:            243 ave         243 max         243 min
Histogram: 1 0 0 0 0 0 0 0 0 0
Neighs:            480 ave         480 max         480 min
Histogram: 1 0 0 0 0 0 0 0 0 0

Total # of neighbors = 480
Ave neighs/atom = 4.4444444
Neighbor list builds = 15
Dangerous builds = 0

thermo_style custom step temp ke pe etotal
thermo 500
timestep 0.001
#dump    id all custom 5000 out_lan_${outfile}.lammpstrj id type radius mass xu yu zu vx vy vz fx fy fz
dump    id all custom 5000 out_lan_${outfile}.lammpstrj id type radius mass x y z
dump    id all custom 5000 out_lan_1708804320.lammpstrj id type radius mass x y z
run 100000
Generated 0 of 0 mixed pair_coeff terms from geometric mixing rule
Per MPI rank memory allocation (min/avg/max) = 4.319 | 4.319 | 4.319 Mbytes
   Step          Temp          KinEng         PotEng         TotEng    
        49   49.656342      73.794842      4.4430421e-09  73.794842    
       500   1.2334663      1.833068       0.60289279     2.4359608    
      1000   1.0531213      1.5650553      0.43052702     1.9955823    
      1500   0.95623531     1.4210719      0.45394835     1.8750203    
      2000   0.9452208      1.4047031      0.3339314      1.7386345    
      2500   1.022067       1.5189051      0.36746167     1.8863668    
      3000   0.89864254     1.3354827      0.29125918     1.6267418    
      3500   0.9113239      1.3543286      0.27677591     1.6311045    
      4000   0.89957001     1.336861       0.36884188     1.7057029    
      4500   1.0247815      1.5229392      0.37041676     1.8933559    
      5000   0.93019722     1.3823764      0.30595982     1.6883363    
      5500   1.0732714      1.5950006      0.24413208     1.8391327    
      6000   1.026513       1.5255124      0.2765104      1.8020228    
      6500   1.1011173      1.6363826      0.35793617     1.9943188    
      7000   1.1405333      1.6949592      0.24642702     1.9413862    
      7500   0.94340796     1.4020091      0.235311       1.6373201    
      8000   1.1236114      1.6698114      0.36512667     2.034938     
      8500   1.1077778      1.6462809      0.28120502     1.9274859    
      9000   0.93605135     1.3910763      0.23214117     1.6232175    
      9500   1.006242       1.4953874      0.34618614     1.8415736    
     10000   1.0159704      1.5098449      0.26681967     1.7766646    
     10500   0.99536376     1.4792211      0.29650606     1.7757272    
     11000   1.0045177      1.4928249      0.29720614     1.790031     
     11500   1.0364854      1.5403325      0.33348734     1.8738198    
     12000   0.91911619     1.3659088      0.2954165      1.6613253    
     12500   0.97488157     1.4487823      0.2818642      1.7306465    
     13000   1.101635       1.6371521      0.1514119      1.788564     
     13500   1.1424972      1.6978779      0.29547935     1.9933572    
     14000   1.067241       1.5860387      0.3330339      1.9190726    
     14500   1.0807884      1.6061717      0.31810787     1.9242796    
     15000   1.0992222      1.6335664      0.3624596      1.996026     
     15500   0.9054992      1.3456724      0.30384257     1.649515     
     16000   0.97868666     1.4544371      0.34758793     1.8020251    
     16500   1.0768521      1.6003218      0.16082227     1.7611441    
     17000   0.91876175     1.3653821      0.23671823     1.6021003    
     17500   0.89757114     1.3338904      0.26076966     1.5946601    
     18000   0.99278468     1.4753883      0.3893723      1.8647606    
     18500   1.0206249      1.516762       0.35410288     1.8708648    
     19000   1.0075175      1.4972829      0.28264422     1.7799271    
     19500   1.0434315      1.5506551      0.31046225     1.8611174    
     20000   0.94277411     1.4010671      0.25873971     1.6598068    
     20500   0.9938261      1.476936       0.29410266     1.7710387    
     21000   0.94221311     1.4002334      0.2284592      1.6286926    
     21500   0.9484285      1.4094701      0.27479884     1.684269     
     22000   0.84491904     1.2556436      0.29537743     1.551021     
     22500   0.96597238     1.4355423      0.23500101     1.6705433    
     23000   1.0507006      1.5614578      0.2065252      1.767983     
     23500   1.0820938      1.6081116      0.34500525     1.9531168    
     24000   1.0321843      1.5339405      0.23590509     1.7698456    
     24500   0.87981304     1.3074999      0.27869778     1.5861977    
     25000   0.97378559     1.4471536      0.32312126     1.7702749    
     25500   1.0592548      1.5741704      0.27266142     1.8468318    
     26000   1.0072742      1.4969214      0.23288866     1.72981      
     26500   1.0372258      1.5414328      0.22201169     1.7634445    
     27000   1.0202017      1.516133       0.20593859     1.7220716    
     27500   1.0671112      1.5858459      0.24679233     1.8326382    
     28000   1.0840185      1.6109719      0.17669469     1.7876666    
     28500   0.93573606     1.3906078      0.27517832     1.6657861    
     29000   1.0547112      1.5674181      0.2345933      1.8020114    
     29500   0.98683828     1.4665513      0.22511024     1.6916616    
     30000   1.0344874      1.5373633      0.28157906     1.8189423    
     30500   1.050374       1.5609725      0.2379151      1.7988876    
     31000   1.0977379      1.6313605      0.27826209     1.9096225    
     31500   0.89823392     1.3348754      0.26341079     1.5982862    
     32000   1.0046074      1.4929582      0.29675928     1.7897175    
     32500   0.87060506     1.2938159      0.36902179     1.6628376    
     33000   1.1229178      1.6687806      0.2803323      1.9491129    
     33500   1.0373537      1.5416228      0.32048592     1.8621087    
     34000   1.0590884      1.573923       0.25060063     1.8245237    
     34500   1.1090887      1.6482291      0.24686486     1.8950939    
     35000   1.0917426      1.6224509      0.342788       1.9652389    
     35500   1.1233591      1.6694365      0.30652264     1.9759591    
     36000   0.96847396     1.4392599      0.29135899     1.7306189    
     36500   1.0035025      1.4913163      0.25882177     1.7501381    
     37000   0.97176356     1.4441486      0.22492356     1.6690722    
     37500   0.88451079     1.3144813      0.30188543     1.6163667    
     38000   0.88543653     1.3158571      0.26020811     1.5760652    
     38500   0.95705673     1.4222926      0.30644258     1.7287352    
     39000   1.0494494      1.5595983      0.19977451     1.7593729    
     39500   1.1129882      1.6540242      0.25178582     1.90581      
     40000   0.98583307     1.4650575      0.3582022      1.8232597    
     40500   1.028122       1.5279035      0.34384652     1.87175      
     41000   0.99193645     1.4741278      0.36971569     1.8438435    
     41500   0.96486062     1.4338901      0.30663566     1.7405257    
     42000   1.0415096      1.5477989      0.30333501     1.8511339    
     42500   0.88384832     1.3134968      0.28542575     1.5989226    
     43000   0.88858339     1.3205336      0.26518732     1.585721     
     43500   0.9746206      1.4483945      0.21329452     1.661689     
     44000   1.0281507      1.5279462      0.24716275     1.775109     
     44500   0.94547636     1.4050829      0.30829733     1.7133803    
     45000   1.2193945      1.8121557      0.22525844     2.0374141    
     45500   1.0212008      1.5176178      0.26830527     1.7859231    
     46000   0.91095235     1.3537764      0.28726969     1.6410461    
     46500   1.0234126      1.5209049      0.25319777     1.7741026    
     47000   1.1176425      1.660941       0.21208177     1.8730227    
     47500   1.056684       1.5703499      0.25831154     1.8286614    
     48000   0.98265065     1.4603281      0.2722153      1.7325434    
     48500   1.0245615      1.5226123      0.23189133     1.7545036    
     49000   0.91920432     1.3660398      0.22853635     1.5945761    
     49500   0.89411118     1.3287486      0.32005436     1.6488029    
     50000   0.92199132     1.3701815      0.21122825     1.5814098    
     50500   0.94810671     1.4089919      0.22637007     1.635362     
     51000   0.93965377     1.3964299      0.24806437     1.6444943    
     51500   1.1250989      1.6720219      0.28638384     1.9584058    
     52000   0.90959799     1.3517637      0.26109382     1.6128575    
     52500   1.0238385      1.5215377      0.27585027     1.797388     
     53000   0.94846895     1.4095302      0.24445307     1.6539833    
     53500   1.0106579      1.5019499      0.27821875     1.7801686    
     54000   1.1483342      1.7065522      0.2012969      1.9078491    
     54500   0.97636868     1.4509923      0.24010757     1.6910999    
     55000   0.92545743     1.3753326      0.21863027     1.5939628    
     55500   1.0371612      1.5413368      0.23219471     1.7735315    
     56000   1.0059131      1.4948986      0.33428384     1.8291825    
     56500   1.0124314      1.5045856      0.29891205     1.8034976    
     57000   1.1004652      1.6354136      0.22775051     1.8631641    
     57500   1.0443611      1.5520367      0.37565792     1.9276946    
     58000   1.0207215      1.5169055      0.32204352     1.838949     
     58500   0.96043543     1.4273138      0.32193757     1.7492513    
     59000   0.98930502     1.4702172      0.29831275     1.7685299    
     59500   0.98701548     1.4668147      0.16196549     1.6287802    
     60000   0.9142569      1.3586873      0.24420339     1.6028907    
     60500   0.93906047     1.3955482      0.18355563     1.5791038    
     61000   0.9835711      1.4616959      0.27608582     1.7377818    
     61500   1.0003987      1.4867036      0.24158019     1.7282838    
     62000   1.1015371      1.6370065      0.29937581     1.9363823    
     62500   0.97440959     1.4480809      0.24983214     1.6979131    
     63000   0.91235614     1.3558626      0.31438328     1.6702459    
     63500   0.97936168     1.4554403      0.32302488     1.7784652    
     64000   1.0814835      1.6072046      0.32840752     1.9356121    
     64500   0.96040454     1.4272679      0.25943646     1.6867043    
     65000   1.0143294      1.5074062      0.28377588     1.7911821    
     65500   1.1500692      1.7091306      0.34115437     2.050285     
     66000   1.0662249      1.5845286      0.23591601     1.8204446    
     66500   1.0316136      1.5330925      0.27001797     1.8031105    
     67000   1.0360287      1.5396538      0.31568776     1.8553415    
     67500   1.0879725      1.616848       0.27730853     1.8941565    
     68000   0.95446623     1.4184429      0.26444857     1.6828914    
     68500   0.9889061      1.4696243      0.33890072     1.8085251    
     69000   1.0112236      1.5027907      0.28298067     1.7857714    
     69500   0.97307472     1.4460971      0.35409688     1.800194     
     70000   1.0930953      1.6244611      0.2345573      1.8590184    
     70500   0.95936405     1.4257216      0.19190681     1.6176284    
     71000   0.9762902      1.4508757      0.17640458     1.6272803    
     71500   1.0127898      1.5051182      0.21919943     1.7243177    
     72000   1.0110348      1.50251        0.2075002      1.7100102    
     72500   1.0292859      1.5296332      0.20308469     1.7327179    
     73000   0.977906       1.453277       0.24797969     1.7012567    
     73500   1.0546149      1.567275       0.31431325     1.8815882    
     74000   0.97277055     1.4456451      0.22826867     1.6739138    
     74500   0.96591784     1.4354612      0.24747981     1.682941     
     75000   0.93333092     1.3870334      0.17129952     1.558333     
     75500   0.86413708     1.2842037      0.30658784     1.5907916    
     76000   1.012721       1.5050159      0.2356134      1.7406293    
     76500   1.1920676      1.7715449      0.25188358     2.0234285    
     77000   1.0378933      1.5424247      0.25882249     1.8012472    
     77500   0.97553869     1.4497589      0.22350098     1.6732599    
     78000   0.99559655     1.4795671      0.21052368     1.6900908    
     78500   1.0677671      1.5868205      0.2091554      1.7959759    
     79000   0.98230353     1.4598122      0.19416924     1.6539814    
     79500   1.2533972      1.8626876      0.33242373     2.1951113    
     80000   1.0051539      1.4937704      0.24242231     1.7361927    
     80500   1.0721193      1.5932885      0.27546534     1.8687538    
     81000   1.0855581      1.6132599      0.23842774     1.8516876    
     81500   1.1164307      1.6591401      0.21133868     1.8704788    
     82000   0.97904176     1.4549648      0.26348355     1.7184484    
     82500   1.0142788      1.5073311      0.42343698     1.930768     
     83000   0.89081178     1.3238453      0.20523695     1.5290822    
     83500   0.99610962     1.4803296      0.25893538     1.739265     
     84000   1.0216189      1.5182392      0.15442568     1.6726649    
     84500   1.1951947      1.7761921      0.22264491     1.998837     
     85000   0.97431229     1.4479363      0.33187421     1.7798105    
     85500   1.0022187      1.4894084      0.19276675     1.6821751    
     86000   1.0534449      1.5655362      0.29141293     1.8569491    
     86500   1.0808011      1.6061906      0.26120403     1.8673946    
     87000   0.96882897     1.4397875      0.30148134     1.7412688    
     87500   1.1345922      1.6861301      0.37492542     2.0610555    
     88000   0.95955877     1.4260109      0.23166226     1.6576732    
     88500   0.93142059     1.3841945      0.23553741     1.6197319    
     89000   0.94516696     1.4046231      0.22738159     1.6320047    
     89500   1.0033373      1.4910707      0.29994873     1.7910194    
     90000   1.01785        1.5126382      0.28762778     1.800266     
     90500   1.0851107      1.6125951      0.25277452     1.8653696    
     91000   1.0045267      1.4928383      0.1864143      1.6792526    
     91500   0.92568053     1.3756641      0.34951431     1.7251784    
     92000   1.0612422      1.5771238      0.2642717      1.8413955    
     92500   0.91939359     1.366321       0.19745246     1.5637735    
     93000   1.0312315      1.5325246      0.2450846      1.7776092    
     93500   1.0099436      1.5008883      0.33579984     1.8366882    
     94000   0.92968979     1.3816223      0.30028222     1.6819045    
     94500   1.0203065      1.5162888      0.22385737     1.7401462    
     95000   0.96769119     1.4380966      0.24960895     1.6877056    
     95500   1.0436776      1.5510209      0.28464327     1.8356641    
     96000   1.0344038      1.537239       0.35830075     1.8955397    
     96500   0.92369632     1.3727154      0.23036134     1.6030767    
     97000   1.0973137      1.6307301      0.25008087     1.880811     
     97500   1.0167399      1.5109885      0.23934885     1.7503374    
     98000   0.81547922     1.2118927      0.1676133      1.379506     
     98500   0.92857276     1.3799623      0.26524922     1.6452115    
     99000   1.0930713      1.6244254      0.26633493     1.8907604    
     99500   1.0245014      1.5225229      0.23949385     1.7620168    
    100000   0.89121304     1.3244416      0.24629851     1.5707401    
    100049   0.92620901     1.3764495      0.22457278     1.6010223    
Loop time of 1.04213 on 1 procs for 100000 steps with 108 atoms

Performance: 8290687.454 tau/day, 95957.031 timesteps/s, 10.363 Matom-step/s
112.4% CPU use with 1 MPI tasks x 1 OpenMP threads

MPI task timing breakdown:
Section |  min time  |  avg time  |  max time  |%varavg| %total
---------------------------------------------------------------
Pair    | 0.17607    | 0.17607    | 0.17607    |   0.0 | 16.90
Neigh   | 0.016936   | 0.016936   | 0.016936   |   0.0 |  1.63
Comm    | 0.20981    | 0.20981    | 0.20981    |   0.0 | 20.13
Output  | 0.0077233  | 0.0077233  | 0.0077233  |   0.0 |  0.74
Modify  | 0.59509    | 0.59509    | 0.59509    |   0.0 | 57.10
Other   |            | 0.0365     |            |       |  3.50

Nlocal:            108 ave         108 max         108 min
Histogram: 1 0 0 0 0 0 0 0 0 0
Nghost:            249 ave         249 max         249 min
Histogram: 1 0 0 0 0 0 0 0 0 0
Neighs:            481 ave         481 max         481 min
Histogram: 1 0 0 0 0 0 0 0 0 0

Total # of neighbors = 481
Ave neighs/atom = 4.4537037
Neighbor list builds = 284
Dangerous builds = 0

write_data data.${outfile} nocoeff nofix
write_data data.1708804320 nocoeff nofix
System init for write_data ...
Generated 0 of 0 mixed pair_coeff terms from geometric mixing rule
Total wall time: 0:00:01
