LAMMPS (21 Nov 2023)
OMP_NUM_THREADS environment is not set. Defaulting to 1 thread. (src/comm.cpp:98)
  using 1 OpenMP thread(s) per MPI task
###variable outfile string L15.17
###variable L equal 15.17

units lj

newton off
atom_style      sphere
boundary        p p p
comm_modify     mode single vel yes


region      boxid block 0.0     $L      0.0       $L      0.0       $L
region      boxid block 0.0     5.7337      0.0       $L      0.0       $L
region      boxid block 0.0     5.7337      0.0       5.7337      0.0       $L
region      boxid block 0.0     5.7337      0.0       5.7337      0.0       5.7337
#create_box  1 boxid
include create_box.in
create_box 1 boxid
Created orthogonal box = (0 0 0) to (5.7337 5.7337 5.7337)
  1 by 1 by 1 MPI processor grid


######
include create_np.in
create_atoms 1 random 108 3432 boxid
Created 108 atoms
  using lattice units in orthogonal box = (0 0 0) to (5.7337 5.7337 5.7337)
  create_atoms CPU = 0.001 seconds
velocity    all create 1.0 87287 dist gaussian

#####
include particles.in
set type 1 diameter 1.0
Setting atom values ...
  108 settings made for diameter
set type 1 mass 26.0
Setting atom values ...
  108 settings made for mass

###
fix 1 all langevin 1.0 1.0 0.1 12345
fix 2 all nve/sphere

###
pair_style lj/cut 1.
include pots_lj_lan.in
pair_coeff 1 1 10.0 1.0 1.122462048309373
pair_modify shift yes



minimize          1.0e-4 1.0e-6 1000 1000
Generated 0 of 0 mixed pair_coeff terms from geometric mixing rule
Neighbor list info ...
  update: every = 1 steps, delay = 0 steps, check = yes
  max neighbors/atom: 2000, page size: 100000
  master list distance cutoff = 1.422462
  ghost atom cutoff = 1.422462
  binsize = 0.71123102, bins = 9 9 9
  1 neighbor lists, perpetual/occasional/extra = 1 0 0
  (1) pair lj/cut, perpetual
      attributes: half, newton off
      pair build: half/bin/newtoff
      stencil: full/bin/3d
      bin: standard
Per MPI rank memory allocation (min/avg/max) = 5.444 | 5.444 | 5.444 Mbytes
   Step          Temp          E_pair         E_mol          TotEng         Press     
         0   49.656342      3.2773217e+10  0              3.2773218e+10  7.5110165e+10
        44   49.656342      3.1013035e-07  0              73.794842      28.188064    
Loop time of 0.00251962 on 1 procs for 44 steps with 108 atoms

158.9% CPU use with 1 MPI tasks x 1 OpenMP threads

Minimization stats:
  Stopping criterion = quadratic factors are zero
  Energy initial, next-to-last, final = 
      32773217483.2276 3.10130352378348e-07 3.10130352378348e-07
  Force two-norm initial, final = 4.9010364e+14 0.23589691
  Force max component initial, final = 2.4147607e+14 0.13187429
  Final line search alpha, max atom move = 0.0059242026 0.00078125
  Iterations, force evaluations = 44 175

MPI task timing breakdown:
Section |  min time  |  avg time  |  max time  |%varavg| %total
---------------------------------------------------------------
Pair    | 0.00073954 | 0.00073954 | 0.00073954 |   0.0 | 29.35
Neigh   | 0.00083325 | 0.00083325 | 0.00083325 |   0.0 | 33.07
Comm    | 0.00058962 | 0.00058962 | 0.00058962 |   0.0 | 23.40
Output  | 0          | 0          | 0          |   0.0 |  0.00
Modify  | 0          | 0          | 0          |   0.0 |  0.00
Other   |            | 0.0003572  |            |       | 14.18

Nlocal:            108 ave         108 max         108 min
Histogram: 1 0 0 0 0 0 0 0 0 0
Nghost:            235 ave         235 max         235 min
Histogram: 1 0 0 0 0 0 0 0 0 0
Neighs:            493 ave         493 max         493 min
Histogram: 1 0 0 0 0 0 0 0 0 0

Total # of neighbors = 493
Ave neighs/atom = 4.5648148
Neighbor list builds = 12
Dangerous builds = 0

thermo_style custom step temp ke pe etotal
thermo 500
timestep 0.001
#dump    id all custom 5000 out_lan_${outfile}.lammpstrj id type radius mass xu yu zu vx vy vz fx fy fz
dump    id all custom 5000 out_lan_${outfile}.lammpstrj id type radius mass x y z
dump    id all custom 5000 out_lan_1708719142.lammpstrj id type radius mass x y z
run 100000
Generated 0 of 0 mixed pair_coeff terms from geometric mixing rule
Per MPI rank memory allocation (min/avg/max) = 4.319 | 4.319 | 4.319 Mbytes
   Step          Temp          KinEng         PotEng         TotEng    
        44   49.656342      73.794842      3.1013035e-07  73.794842    
       500   1.1424577      1.697819       0.65187342     2.3496925    
      1000   1.0567832      1.5704973      0.43703319     2.0075305    
      1500   0.96776259     1.4382027      0.48205633     1.9202591    
      2000   0.98161008     1.4587816      0.32012327     1.7789049    
      2500   1.0590605      1.5738816      0.41393586     1.9878175    
      3000   0.88309789     1.3123816      0.41726605     1.7296476    
      3500   0.95995369     1.4265978      0.26562052     1.6922184    
      4000   0.9876339      1.4677337      0.42313866     1.8908724    
      4500   0.90507007     1.3450347      0.44649966     1.7915343    
      5000   1.0129403      1.5053418      0.38268537     1.8880272    
      5500   1.1063002      1.644085       0.43381439     2.0778994    
      6000   1.1055091      1.6429094      0.27617233     1.9190817    
      6500   1.0471759      1.5562197      0.41358553     1.9698052    
      7000   1.0550014      1.5678494      0.40482682     1.9726762    
      7500   0.91553615     1.3605884      0.43946955     1.800058     
      8000   1.1393521      1.6932038      0.29188087     1.9850847    
      8500   1.0731679      1.5948467      0.32486478     1.9197115    
      9000   0.94763702     1.4082939      0.32667857     1.7349725    
      9500   0.93681012     1.3922039      0.23782678     1.6300307    
     10000   0.9822042      1.4596646      0.2931741      1.7528387    
     10500   0.96541615     1.4347157      0.27344498     1.7081606    
     11000   1.052764       1.5645243      0.33262749     1.8971518    
     11500   0.97784668     1.4531888      0.42910624     1.882295     
     12000   0.95093579     1.4131962      0.347627       1.7608232    
     12500   0.96372026     1.4321954      0.22669418     1.6588896    
     13000   1.0882852      1.6173128      0.17427505     1.7915878    
     13500   1.1375801      1.6905704      0.28251385     1.9730842    
     14000   1.0222638      1.5191976      0.23763278     1.7568303    
     14500   1.0536719      1.5658736      0.25554698     1.8214206    
     15000   1.1598595      1.7236801      0.38683253     2.1105126    
     15500   1.0062242      1.495361       0.32014448     1.8155055    
     16000   1.0199148      1.5157067      0.37275442     1.8884611    
     16500   1.1295154      1.6785854      0.22192306     1.9005084    
     17000   0.83903043     1.2468924      0.26516199     1.5120544    
     17500   1.007663       1.4974991      0.22140394     1.7189031    
     18000   1.0283946      1.5283087      0.26037927     1.7886879    
     18500   1.035653       1.5390954      0.17606541     1.7151608    
     19000   0.97025741     1.4419103      0.19257418     1.6344845    
     19500   1.0786925      1.6030568      0.24081328     1.8438701    
     20000   0.95461164     1.418659       0.20331509     1.6219741    
     20500   1.0131123      1.5055974      0.48069062     1.9862881    
     21000   1.0251356      1.5234655      0.2866763      1.8101418    
     21500   0.89205167     1.3256879      0.35205111     1.677739     
     22000   0.91720466     1.363068       0.31029817     1.6733662    
     22500   0.92245855     1.3708759      0.14985789     1.5207338    
     23000   1.0232908      1.5207238      0.31157189     1.8322957    
     23500   1.0631329      1.5799336      0.30505626     1.8849898    
     24000   1.0652366      1.5830599      0.33175521     1.9148152    
     24500   0.90316228     1.3421995      0.3411836      1.6833831    
     25000   1.0242894      1.5222079      0.28099904     1.8032069    
     25500   1.0795145      1.6042785      0.25862923     1.8629077    
     26000   1.0393615      1.5446066      0.30245725     1.8470639    
     26500   1.0437936      1.5511932      0.24720956     1.7984028    
     27000   0.9616646      1.4291405      0.27659925     1.7057397    
     27500   1.0850584      1.6125173      0.29155581     1.9040731    
     28000   1.0663463      1.5847091      0.26402838     1.8487374    
     28500   1.0184863      1.5135839      0.22655977     1.7401436    
     29000   0.92223183     1.370539       0.41442778     1.7849668    
     29500   1.0254633      1.5239524      0.26634218     1.7902946    
     30000   1.107986       1.6465903      0.2846127      1.931203     
     30500   1.0574441      1.5714794      0.26165873     1.8331381    
     31000   1.1168426      1.6597522      0.34958058     2.0093328    
     31500   0.94881328     1.410042       0.22033894     1.6303809    
     32000   0.99140211     1.4733337      0.34808479     1.8214185    
     32500   0.88240124     1.3113463      0.29335027     1.6046966    
     33000   1.092589       1.6237086      0.40680868     2.0305173    
     33500   1.0660185      1.584222       0.35056679     1.9347888    
     34000   1.0142034      1.5072189      0.26151163     1.7687305    
     34500   1.0642389      1.5815773      0.27633052     1.8579078    
     35000   1.1508917      1.7103529      0.26278081     1.9731338    
     35500   1.0894944      1.6191097      0.2081679      1.8272776    
     36000   1.0266086      1.5256544      0.2147778      1.7404322    
     36500   1.0083096      1.4984601      0.27352745     1.7719875    
     37000   0.9204208      1.3678476      0.31237401     1.6802216    
     37500   0.90900722     1.3508857      0.28265217     1.6335379    
     38000   0.96032168     1.4271447      0.30067331     1.727818     
     38500   0.97355372     1.446809       0.25367493     1.7004839    
     39000   1.0017808      1.4887575      0.26796316     1.7567207    
     39500   1.0639551      1.5811556      0.32454133     1.9056969    
     40000   1.0444026      1.5520984      0.32292841     1.8750268    
     40500   0.95949068     1.4259098      0.37096779     1.7968775    
     41000   0.99071265     1.4723091      0.33604746     1.8083565    
     41500   0.9674146      1.4376856      0.31760197     1.7552876    
     42000   1.1109424      1.6509838      0.23447954     1.8854634    
     42500   0.92911456     1.3807675      0.24920526     1.6299727    
     43000   0.92816093     1.3793503      0.25295538     1.6323057    
     43500   0.9865799      1.4661674      0.21425758     1.6804249    
     44000   0.99225145     1.4745959      0.2578714      1.7324673    
     44500   0.97724969     1.4523016      0.23653529     1.6888369    
     45000   1.1432813      1.699043       0.24827081     1.9473138    
     45500   0.98908064     1.4698837      0.3186602      1.7885439    
     46000   0.93177562     1.3847221      0.30141189     1.686134     
     46500   0.99020836     1.4715596      0.36925501     1.8408146    
     47000   1.1203711      1.6649959      0.31637522     1.9813711    
     47500   0.99895711     1.4845613      0.37217944     1.8567407    
     48000   0.96156691     1.4289953      0.29223608     1.7212313    
     48500   1.06336        1.5802711      0.26220438     1.8424754    
     49000   1.0393964      1.5446585      0.20066777     1.7453263    
     49500   0.92557024     1.3755002      0.24731985     1.6228201    
     50000   0.94662994     1.4067973      0.22919801     1.6359953    
     50500   1.0165442      1.5106977      0.21945966     1.7301573    
     51000   0.95377797     1.41742        0.28655458     1.7039746    
     51500   1.0917496      1.6224612      0.20593231     1.8283935    
     52000   0.98723102     1.467135       0.21793538     1.6850704    
     52500   1.0195682      1.5151916      0.27081018     1.7860018    
     53000   0.97410768     1.4476322      0.29780172     1.745434     
     53500   0.97469896     1.448511       0.25358839     1.7020993    
     54000   1.2104075      1.7988         0.2596472      2.0584472    
     54500   0.99245743     1.474902       0.3745233      1.8494253    
     55000   0.95061331     1.412717       0.26236887     1.6750859    
     55500   1.0277949      1.5274174      0.26993978     1.7973572    
     56000   1.0080112      1.4980167      0.3559103      1.853927     
     56500   1.0541148      1.5665318      0.26597304     1.8325048    
     57000   0.96225262     1.4300143      0.30161166     1.731626     
     57500   1.0272415      1.526595       0.43986508     1.9664601    
     58000   0.95015503     1.4120359      0.27141077     1.6834467    
     58500   1.0252132      1.5235807      0.16845473     1.6920354    
     59000   0.98403411     1.462384       0.26022886     1.7226129    
     59500   0.97191391     1.4443721      0.21475344     1.6591255    
     60000   0.90011596     1.3376723      0.30885327     1.6465256    
     60500   0.87971494     1.3073542      0.14077989     1.448134     
     61000   0.99693903     1.4815622      0.25850729     1.7400695    
     61500   1.0225339      1.5195989      0.1644173      1.6840162    
     62000   1.0819857      1.607951       0.42967189     2.0376229    
     62500   0.92650505     1.3768894      0.25308957     1.629979     
     63000   0.93441533     1.388645       0.32219289     1.7108379    
     63500   1.0286063      1.5286233      0.30953785     1.8381611    
     64000   1.0963346      1.629275       0.34074336     1.9700184    
     64500   0.91496084     1.3597335      0.29197333     1.6517068    
     65000   0.97907865     1.4550197      0.30938449     1.7644041    
     65500   1.0905285      1.6206465      0.30418652     1.9248331    
     66000   1.0845433      1.6117519      0.29396266     1.9057145    
     66500   1.0777381      1.6016385      0.23075736     1.8323959    
     67000   1.0474821      1.5566748      0.25793492     1.8146097    
     67500   1.0621687      1.5785007      0.35289021     1.9313909    
     68000   0.99822597     1.4834747      0.25629087     1.7397656    
     68500   1.0199211      1.515716       0.21873223     1.7344483    
     69000   0.93372991     1.3876264      0.2041678      1.5917942    
     69500   1.0542534      1.5667377      0.2789711      1.8457088    
     70000   1.0418067      1.5482405      0.3120549      1.8602954    
     70500   0.9340658      1.3881256      0.2037262      1.5918518    
     71000   0.93157475     1.3844236      0.22943437     1.613858     
     71500   1.0506151      1.5613308      0.25136606     1.8126968    
     72000   0.99944253     1.4852826      0.25218857     1.7374712    
     72500   0.986859       1.4665821      0.24368114     1.7102633    
     73000   0.99523158     1.4790247      0.28626922     1.7652939    
     73500   0.97793267     1.4533166      0.21269855     1.6660152    
     74000   1.0035065      1.4913221      0.31957955     1.8109017    
     74500   0.91408279     1.3584286      0.21924264     1.5776712    
     75000   0.90382734     1.3431878      0.20089191     1.5440798    
     75500   0.93842967     1.3946108      0.26021985     1.6548306    
     76000   0.96876931     1.4396988      0.18487529     1.6245741    
     76500   1.1311423      1.6810032      0.26381924     1.9448224    
     77000   1.0528207      1.5646086      0.24873322     1.8133418    
     77500   0.98209372     1.4595004      0.18994244     1.6494428    
     78000   0.97348675     1.4467095      0.28990183     1.7366113    
     78500   1.0556368      1.5687936      0.18368315     1.7524768    
     79000   1.0429977      1.5500105      0.19697126     1.7469818    
     79500   1.1752721      1.7465849      0.26375211     2.010337     
     80000   0.97199172     1.4444877      0.22619847     1.6706862    
     80500   1.0689984      1.5886504      0.14925099     1.7379014    
     81000   1.1041426      1.6408786      0.27824793     1.9191266    
     81500   1.1339069      1.6851116      0.22522514     1.9103368    
     82000   0.93955038     1.3962763      0.20800338     1.6042796    
     82500   1.100598       1.6356109      0.22787925     1.8634902    
     83000   0.87007673     1.2930307      0.22468035     1.517711     
     83500   0.98258809     1.4602351      0.29610053     1.7563356    
     84000   0.99539224     1.4792635      0.27441101     1.7536745    
     84500   1.1621996      1.7271578      0.47739317     2.2045509    
     85000   1.0067032      1.4960729      0.30070338     1.7967763    
     85500   1.0738344      1.5958373      0.22082421     1.8166615    
     86000   0.9737965      1.4471698      0.39387563     1.8410454    
     86500   1.0436803      1.551025       0.28838107     1.839406     
     87000   0.98571099     1.464876       0.37430421     1.8391803    
     87500   1.1477586      1.7056968      0.21449772     1.9201945    
     88000   1.076591       1.5999338      0.14307707     1.7430109    
     88500   0.94420246     1.4031898      0.20700234     1.6101921    
     89000   0.86845197     1.2906161      0.20300508     1.4936212    
     89500   1.0015008      1.4883415      0.27783747     1.766179     
     90000   1.0047706      1.4932008      0.40869962     1.9019004    
     90500   1.0917517      1.6224643      0.23092889     1.8533931    
     91000   0.99601208     1.4801846      0.20752394     1.6877086    
     91500   0.94799157     1.4088208      0.2115401      1.6203609    
     92000   1.0386565      1.543559       0.29139962     1.8349586    
     92500   0.96877075     1.439701       0.20387092     1.6435719    
     93000   0.95169107     1.4143187      0.25825278     1.6725714    
     93500   1.092564       1.6236715      0.25745714     1.8811286    
     94000   0.94693569     1.4072516      0.25791981     1.6651715    
     94500   1.0282661      1.5281176      0.23044563     1.7585633    
     95000   0.97264036     1.4454516      0.29079621     1.7362478    
     95500   0.99140732     1.4733414      0.37203746     1.8453789    
     96000   1.0939759      1.6257697      0.29473969     1.9205094    
     96500   0.81925205     1.2174996      0.20150988     1.4190095    
     97000   1.1233626      1.6694416      0.34972761     2.0191692    
     97500   1.0474639      1.5566478      0.26600977     1.8226576    
     98000   0.85568669     1.2716455      0.23013312     1.5017786    
     98500   1.0274986      1.526977       0.16844204     1.6954191    
     99000   1.0541668      1.566609       0.37439953     1.9410085    
     99500   1.0407392      1.5466541      0.27378534     1.8204394    
    100000   0.80926817     1.2026624      0.28368532     1.4863477    
    100044   0.90903639     1.3509291      0.26320464     1.6141337    
Loop time of 1.00819 on 1 procs for 100000 steps with 108 atoms

Performance: 8569774.579 tau/day, 99187.206 timesteps/s, 10.712 Matom-step/s
120.5% CPU use with 1 MPI tasks x 1 OpenMP threads

MPI task timing breakdown:
Section |  min time  |  avg time  |  max time  |%varavg| %total
---------------------------------------------------------------
Pair    | 0.16698    | 0.16698    | 0.16698    |   0.0 | 16.56
Neigh   | 0.01583    | 0.01583    | 0.01583    |   0.0 |  1.57
Comm    | 0.20069    | 0.20069    | 0.20069    |   0.0 | 19.91
Output  | 0.0049677  | 0.0049677  | 0.0049677  |   0.0 |  0.49
Modify  | 0.58834    | 0.58834    | 0.58834    |   0.0 | 58.36
Other   |            | 0.03138    |            |       |  3.11

Nlocal:            108 ave         108 max         108 min
Histogram: 1 0 0 0 0 0 0 0 0 0
Nghost:            260 ave         260 max         260 min
Histogram: 1 0 0 0 0 0 0 0 0 0
Neighs:            467 ave         467 max         467 min
Histogram: 1 0 0 0 0 0 0 0 0 0

Total # of neighbors = 467
Ave neighs/atom = 4.3240741
Neighbor list builds = 283
Dangerous builds = 0

write_data data.${outfile} nocoeff nofix
write_data data.1708719142 nocoeff nofix
System init for write_data ...
Generated 0 of 0 mixed pair_coeff terms from geometric mixing rule
Total wall time: 0:00:01
