LAMMPS (21 Nov 2023)
OMP_NUM_THREADS environment is not set. Defaulting to 1 thread. (src/comm.cpp:98)
  using 1 OpenMP thread(s) per MPI task
###variable outfile string L15.17
###variable L equal 15.17

units lj

newton off
atom_style      sphere
boundary        p p p
comm_modify     mode single vel yes


region      boxid block 0.0     $L      0.0       $L      0.0       $L
region      boxid block 0.0     5.7337      0.0       $L      0.0       $L
region      boxid block 0.0     5.7337      0.0       5.7337      0.0       $L
region      boxid block 0.0     5.7337      0.0       5.7337      0.0       5.7337
#create_box  1 boxid
include create_box.in
create_box 1 boxid
Created orthogonal box = (0 0 0) to (5.7337 5.7337 5.7337)
  1 by 1 by 1 MPI processor grid


######
include create_np.in
create_atoms 1 random 54 5107 boxid
Created 54 atoms
  using lattice units in orthogonal box = (0 0 0) to (5.7337 5.7337 5.7337)
  create_atoms CPU = 0.000 seconds
velocity    all create 1.0 87287 dist gaussian

#####
include particles.in
set type 1 diameter 1.0
Setting atom values ...
  54 settings made for diameter
set type 1 mass 26.0
Setting atom values ...
  54 settings made for mass

###
fix 1 all langevin 1.0 1.0 0.1 12345
fix 2 all nve/sphere

###
pair_style lj/cut 1.
include pots_lj_lan.in
pair_coeff 1 1 10.0 1.0 1.122462048309373
pair_modify shift yes



minimize          1.0e-4 1.0e-6 1000 1000
Generated 0 of 0 mixed pair_coeff terms from geometric mixing rule
Neighbor list info ...
  update: every = 1 steps, delay = 0 steps, check = yes
  max neighbors/atom: 2000, page size: 100000
  master list distance cutoff = 1.422462
  ghost atom cutoff = 1.422462
  binsize = 0.71123102, bins = 9 9 9
  1 neighbor lists, perpetual/occasional/extra = 1 0 0
  (1) pair lj/cut, perpetual
      attributes: half, newton off
      pair build: half/bin/newtoff
      stencil: full/bin/3d
      bin: standard
Per MPI rank memory allocation (min/avg/max) = 5.443 | 5.443 | 5.443 Mbytes
   Step          Temp          E_pair         E_mol          TotEng         Press     
         0   49.656342      32450540       0              32450613       37189560     
        23   49.656342      5.4127905e-05  0              73.105225      13.968154    
Loop time of 0.000424034 on 1 procs for 23 steps with 54 atoms

542.4% CPU use with 1 MPI tasks x 1 OpenMP threads

Minimization stats:
  Stopping criterion = quadratic factors are zero
  Energy initial, next-to-last, final = 
      32450539.8724339 5.4127905211063e-05 5.4127905211063e-05
  Force two-norm initial, final = 1.1195319e+11 2.2943169
  Force max component initial, final = 7.8419501e+10 1.162051
  Final line search alpha, max atom move = 0.010756843 0.0125
  Iterations, force evaluations = 23 67

MPI task timing breakdown:
Section |  min time  |  avg time  |  max time  |%varavg| %total
---------------------------------------------------------------
Pair    | 8.8422e-05 | 8.8422e-05 | 8.8422e-05 |   0.0 | 20.85
Neigh   | 0.000128   | 0.000128   | 0.000128   |   0.0 | 30.19
Comm    | 0.00011541 | 0.00011541 | 0.00011541 |   0.0 | 27.22
Output  | 0          | 0          | 0          |   0.0 |  0.00
Modify  | 0          | 0          | 0          |   0.0 |  0.00
Other   |            | 9.22e-05   |            |       | 21.74

Nlocal:             54 ave          54 max          54 min
Histogram: 1 0 0 0 0 0 0 0 0 0
Nghost:            131 ave         131 max         131 min
Histogram: 1 0 0 0 0 0 0 0 0 0
Neighs:            115 ave         115 max         115 min
Histogram: 1 0 0 0 0 0 0 0 0 0

Total # of neighbors = 115
Ave neighs/atom = 2.1296296
Neighbor list builds = 5
Dangerous builds = 0

thermo_style custom step temp ke pe etotal
thermo 500
timestep 0.001
#dump    id all custom 5000 out_lan_${outfile}.lammpstrj id type radius mass xu yu zu vx vy vz fx fy fz
dump    id all custom 5000 out_lan_${outfile}.lammpstrj id type radius mass x y z
dump    id all custom 5000 out_lan_1708715559.lammpstrj id type radius mass x y z
run 100000
Generated 0 of 0 mixed pair_coeff terms from geometric mixing rule
Per MPI rank memory allocation (min/avg/max) = 4.318 | 4.318 | 4.318 Mbytes
   Step          Temp          KinEng         PotEng         TotEng    
        23   49.656342      73.105171      5.4127905e-05  73.105225    
       500   0.96668582     1.4231763      0.23966746     1.6628438    
      1000   1.0920459      1.6077343      0.17772158     1.7854559    
      1500   1.0838828      1.5957163      0.18503597     1.7807522    
      2000   1.1097184      1.6337521      0.24247846     1.8762305    
      2500   1.1520787      1.6961159      0.10141748     1.7975334    
      3000   0.97834163     1.4403363      0.089153044    1.5294893    
      3500   1.0631623      1.5652111      0.073912566    1.6391237    
      4000   1.0143761      1.493387       0.09747279     1.5908598    
      4500   1.1536323      1.6984031      0.058434629    1.7568378    
      5000   1.1218145      1.6515603      0.01434818     1.6659084    
      5500   1.01864        1.4996645      0.063110992    1.5627755    
      6000   1.0173435      1.4977557      0.03369945     1.5314551    
      6500   1.0539621      1.5516665      0.17512098     1.7267875    
      7000   1.1979371      1.7636297      0.069606399    1.8332361    
      7500   0.99471644     1.4644436      0.084489688    1.5489333    
      8000   1.0580371      1.5576658      0.054262828    1.6119286    
      8500   0.94630043     1.3931645      0.050482886    1.4436474    
      9000   0.9563661      1.4079834      0.12185759     1.529841     
      9500   0.95334222     1.4035316      0.14685394     1.5503855    
     10000   1.1918346      1.7546454      0.067442341    1.8220877    
     10500   1.0964908      1.6142781      0.04192741     1.6562055    
     11000   0.87491198     1.2880649      0.10434237     1.3924072    
     11500   0.88814899     1.3075527      0.084227342    1.39178      
     12000   1.0615329      1.5628123      0.083356209    1.6461685    
     12500   1.1515401      1.6953229      0.070552288    1.7658752    
     13000   1.0271913      1.5122539      0.044740752    1.5569947    
     13500   0.8622958      1.269491       0.030745569    1.3002366    
     14000   0.99231263     1.4609047      0.057613968    1.5185187    
     14500   1.0371204      1.5268717      0.017243225    1.5441149    
     15000   1.0608206      1.5617636      0.026788909    1.5885525    
     15500   0.915531       1.3478651      0.065520241    1.4133853    
     16000   1.0136478      1.4923148      0.058043509    1.5503583    
     16500   0.76813062     1.130859       0.13976526     1.2706242    
     17000   1.0959052      1.613416       0.22455086     1.8379668    
     17500   0.90218982     1.3282239      0.074538363    1.4027623    
     18000   0.95070854     1.3996542      0.074842058    1.4744963    
     18500   0.94928096     1.3975525      0.15553099     1.5530835    
     19000   1.0897937      1.6044185      0.022895095    1.6273136    
     19500   1.0470268      1.5414562      0.042891348    1.5843475    
     20000   0.95332838     1.4035112      0.13062961     1.5341408    
     20500   0.9677529      1.4247473      0.1258971      1.5506444    
     21000   1.0740151      1.5811889      0.078988919    1.6601778    
     21500   1.0526637      1.5497549      0.04165063     1.5914055    
     22000   1.09792        1.6163822      0.102939       1.7193213    
     22500   0.97949621     1.4420361      0.073835872    1.515872     
     23000   0.92915084     1.3679165      0.041646411    1.4095629    
     23500   1.0263973      1.5110849      0.048288048    1.5593729    
     24000   0.92464876     1.3612884      0.0093491368   1.3706376    
     24500   1.1286781      1.6616649      0.039169755    1.7008347    
     25000   0.94891924     1.39702        0.052399567    1.4494196    
     25500   0.8133401      1.1974174      0.038973551    1.2363909    
     26000   0.94869951     1.3966965      0.047278225    1.4439747    
     26500   0.95699016     1.4089022      0.10992229     1.5188245    
     27000   1.0637221      1.5660352      0.046415808    1.612451     
     27500   0.98527032     1.4505369      0.023015717    1.4735526    
     28000   1.1927883      1.7560495      0.044863467    1.8009129    
     28500   1.1059855      1.6282565      0.060463067    1.6887195    
     29000   1.031605       1.5187518      0.11984262     1.6385944    
     29500   1.0563669      1.5552068      0.070431365    1.6256381    
     30000   1.035323       1.5242255      0.15772975     1.6819553    
     30500   1.221733       1.7986625      0.11668584     1.9153484    
     31000   1.1431412      1.6829579      0.058912569    1.7418705    
     31500   1.0319462      1.5192541      0.021433973    1.5406881    
     32000   1.0299241      1.5162772      0.070316452    1.5865936    
     32500   0.92078805     1.3556046      0.02157381     1.3771784    
     33000   1.1896094      1.7513694      0.045671921    1.7970413    
     33500   1.0657592      1.5690344      0.061155715    1.6301901    
     34000   0.9447115      1.3908253      0.055059012    1.4458843    
     34500   1.0657256      1.5689848      0.13414442     1.7031293    
     35000   0.8909233      1.3116371      0.078126972    1.389764     
     35500   0.9351356      1.3767274      0.12196482     1.4986922    
     36000   1.1156591      1.6424981      0.12645692     1.768955     
     36500   1.0586938      1.5586325      0.033979455    1.592612     
     37000   1.158043       1.7048966      0.032915095    1.7378117    
     37500   0.83630506     1.2312269      0.04812546     1.2793524    
     38000   1.0333124      1.5212655      0.058666005    1.5799315    
     38500   1.1539133      1.6988167      0.080538697    1.7793554    
     39000   1.3551417      1.9950697      0.021076167    2.0161459    
     39500   1.0733837      1.5802593      0.088853714    1.669113     
     40000   1.0480825      1.5430103      0.068991042    1.6120014    
     40500   1.1663524      1.71713        0.028774008    1.745904     
     41000   1.0128541      1.4911462      0.11205092     1.6031972    
     41500   0.94675721     1.393837       0.10634725     1.5001843    
     42000   0.84037612     1.2372204      0.12235569     1.3595761    
     42500   1.0350769      1.5238633      0.11115299     1.6350162    
     43000   0.88890064     1.3086593      0.08508871     1.393748     
     43500   0.89997079     1.324957       0.033318344    1.3582753    
     44000   1.1844594      1.7437875      0.076748966    1.8205364    
     44500   0.87772252     1.2922026      0.0057937042   1.2979963    
     45000   1.010559       1.4877674      0.092605706    1.5803731    
     45500   1.0499508      1.5457608      0.080286171    1.626047     
     46000   0.89758545     1.3214452      0.082504702    1.4039499    
     46500   1.1528193      1.6972063      0.057494109    1.7547004    
     47000   1.0044704      1.4788037      0.10346633     1.58227      
     47500   0.99912094     1.4709281      0.10043017     1.5713582    
     48000   1.1198745      1.6487042      0.055903629    1.7046078    
     48500   0.96070799     1.4143757      0.087355068    1.5017307    
     49000   1.2239955      1.8019933      0.083580514    1.8855738    
     49500   0.96496061     1.4206365      0.032519348    1.4531558    
     50000   0.95496893     1.4059265      0.0036361892   1.4095627    
     50500   0.87387224     1.2865341      0.011642374    1.2981765    
     51000   1.0771624      1.5858224      0.039166689    1.6249891    
     51500   0.99026979     1.4578972      0.12122391     1.5791211    
     52000   1.1263227      1.6581973      0.032943394    1.6911407    
     52500   0.92330945     1.3593167      0.11947791     1.4787946    
     53000   0.97431065     1.4344018      0.010520305    1.4449221    
     53500   0.83065865     1.2229141      0.028033183    1.2509473    
     54000   0.95416848     1.404748       0.10001551     1.5047635    
     54500   1.2264941      1.8056719      0.055527179    1.8611991    
     55000   0.9192162      1.3532905      0.022563886    1.3758544    
     55500   0.93735931     1.3800012      0.10183104     1.4818322    
     56000   0.90614235     1.3340429      0.047283511    1.3813264    
     56500   0.89121669     1.312069       0.056529591    1.3685986    
     57000   0.88217278     1.2987544      0.082869778    1.3816241    
     57500   1.1106439      1.6351146      0.084761952    1.7198766    
     58000   1.0008114      1.4734168      0.01890747     1.4923243    
     58500   1.1680539      1.7196349      0.069862202    1.7894971    
     59000   1.103426       1.6244883      0.14587716     1.7703655    
     59500   1.1143715      1.6406025      0.053046443    1.6936489    
     60000   0.95163057     1.4010117      0.078884719    1.4798964    
     60500   0.94031996     1.3843599      0.081125972    1.4654859    
     61000   0.97517164     1.4356694      0.14225291     1.5779223    
     61500   0.88584038     1.3041539      0.054644009    1.3587979    
     62000   0.96544654     1.4213519      0.043025298    1.4643771    
     62500   1.0695299      1.5745856      0.09682664     1.6714123    
     63000   0.99959868     1.4716314      0.14851035     1.6201417    
     63500   1.0099921      1.4869328      0.017215157    1.5041479    
     64000   1.0635358      1.565761       0.058671027    1.624432     
     64500   0.9680194      1.4251397      0.047745191    1.4728849    
     65000   1.1693883      1.7215994      0.046862644    1.7684621    
     65500   0.9815916      1.445121       0.092648969    1.5377699    
     66000   0.99015999     1.4577355      0.079382789    1.5371183    
     66500   0.9658753      1.4219831      0.12145449     1.5434376    
     67000   1.0634703      1.5656646      0.091605751    1.6572703    
     67500   0.99330489     1.4623655      0.050684376    1.5130499    
     68000   1.1455206      1.6864609      0.062572759    1.7490337    
     68500   0.96958131     1.4274392      0.028863536    1.4563027    
     69000   0.82515954     1.2148182      0.12421891     1.3390371    
     69500   0.94775683     1.3953087      0.011031275    1.4063399    
     70000   1.0991806      1.618238       0.07454994     1.692788     
     70500   0.9924705      1.4611371      0.12757485     1.588712     
     71000   0.98940158     1.456619       0.068857773    1.5254768    
     71500   1.0955281      1.6128609      0.2124731      1.825334     
     72000   0.81534995     1.2003763      0.012378216    1.2127545    
     72500   1.1413343      1.6802977      0.020932289    1.70123      
     73000   0.99964598     1.471701       0.10834593     1.580047     
     73500   1.1495209      1.6923502      0.034125529    1.7264757    
     74000   1.1492169      1.6919027      0.015114491    1.7070172    
     74500   1.2197119      1.795687       0.04932985     1.8450168    
     75000   0.99767482     1.468799       0.034810328    1.5036094    
     75500   1.1363787      1.6730019      0.076430782    1.7494327    
     76000   1.1940476      1.7579034      0.063845795    1.8217492    
     76500   0.8999346      1.3249037      0.060810228    1.3857139    
     77000   1.0790759      1.5886395      0.084072035    1.6727115    
     77500   1.0053134      1.4800447      0.11499988     1.5950446    
     78000   1.005288       1.4800073      0.056770762    1.536778     
     78500   0.99260707     1.4613382      0.064985229    1.5263234    
     79000   1.0798403      1.5897648      0.048492722    1.6382576    
     79500   0.90577186     1.3334975      0.016366839    1.3498643    
     80000   1.2425609      1.8293258      0.089493692    1.9188195    
     80500   0.9493237      1.3976155      0.11272218     1.5103376    
     81000   0.80184947     1.1805006      0.071852551    1.2523532    
     81500   1.3169914      1.938904       0.018428673    1.9573327    
     82000   0.85265734     1.2553011      0.1143937      1.3696948    
     82500   1.0718129      1.5779468      0.08274838     1.6606952    
     83000   1.1118793      1.6369334      0.17498114     1.8119145    
     83500   1.0381712      1.5284187      0.088194768    1.6166135    
     84000   0.94765438     1.3951578      0.04159761     1.4367554    
     84500   1.0118802      1.4897125      0.06819387     1.5579064    
     85000   0.9434938      1.3890325      0.050491558    1.4395241    
     85500   0.96254466     1.4170796      0.03774765     1.4548273    
     86000   1.0903073      1.6051746      0.079351072    1.6845257    
     86500   0.79639892     1.1724762      0.022833009    1.1953092    
     87000   1.0688699      1.5736141      0.062029605    1.6356437    
     87500   1.1842467      1.7434743      0.04083011     1.7843044    
     88000   1.1341946      1.6697865      0.039159089    1.7089456    
     88500   1.173074       1.7270256      0.033013335    1.7600389    
     89000   0.96835356     1.4256316      0.17603356     1.6016652    
     89500   0.95719008     1.4091965      0.014982006    1.4241785    
     90000   0.76588437     1.127552       0.074713052    1.202265     
     90500   0.95124163     1.4004391      0.062495652    1.4629347    
     91000   1.0344234      1.5229011      0.075043648    1.5979447    
     91500   0.99812683     1.4694645      0.16363608     1.6331006    
     92000   1.0199741      1.5016286      0.077456834    1.5790854    
     92500   0.96747755     1.4243419      0.086770495    1.5111124    
     93000   0.80247532     1.181422       0.16139559     1.3428176    
     93500   1.0426199      1.5349682      0.1476256      1.6825938    
     94000   1.0500959      1.5459745      0.075401432    1.6213759    
     94500   0.91843339     1.352138       0.03294249     1.3850805    
     95000   1.0199341      1.5015697      0.10332081     1.6048905    
     95500   1.200387       1.7672364      0.076209074    1.8434454    
     96000   1.0472041      1.5417172      0.046782724    1.5884999    
     96500   0.97554579     1.4362202      0.036298372    1.4725186    
     97000   0.97066426     1.4290335      0.034564046    1.4635975    
     97500   1.0999018      1.6192998      0.039171949    1.6584718    
     98000   0.95793969     1.4103001      0.058547969    1.4688481    
     98500   0.96821605     1.4254292      0.083103193    1.5085324    
     99000   0.9103355      1.3402162      0.044229682    1.3844458    
     99500   1.0108521      1.488199       0.042544439    1.5307434    
    100000   1.0845768      1.5967381      0.046798738    1.6435368    
    100023   1.0863874      1.5994036      0.035768392    1.635172     
Loop time of 0.469007 on 1 procs for 100000 steps with 54 atoms

Performance: 18421913.948 tau/day, 213216.597 timesteps/s, 11.514 Matom-step/s
134.0% CPU use with 1 MPI tasks x 1 OpenMP threads

MPI task timing breakdown:
Section |  min time  |  avg time  |  max time  |%varavg| %total
---------------------------------------------------------------
Pair    | 0.041535   | 0.041535   | 0.041535   |   0.0 |  8.86
Neigh   | 0.004805   | 0.004805   | 0.004805   |   0.0 |  1.02
Comm    | 0.10197    | 0.10197    | 0.10197    |   0.0 | 21.74
Output  | 0.0028512  | 0.0028512  | 0.0028512  |   0.0 |  0.61
Modify  | 0.29543    | 0.29543    | 0.29543    |   0.0 | 62.99
Other   |            | 0.02241    |            |       |  4.78

Nlocal:             54 ave          54 max          54 min
Histogram: 1 0 0 0 0 0 0 0 0 0
Nghost:            131 ave         131 max         131 min
Histogram: 1 0 0 0 0 0 0 0 0 0
Neighs:             99 ave          99 max          99 min
Histogram: 1 0 0 0 0 0 0 0 0 0

Total # of neighbors = 99
Ave neighs/atom = 1.8333333
Neighbor list builds = 267
Dangerous builds = 0

write_data data.${outfile} nocoeff nofix
write_data data.1708715559 nocoeff nofix
System init for write_data ...
Generated 0 of 0 mixed pair_coeff terms from geometric mixing rule
Total wall time: 0:00:00
