LAMMPS (21 Nov 2023)
OMP_NUM_THREADS environment is not set. Defaulting to 1 thread. (src/comm.cpp:98)
  using 1 OpenMP thread(s) per MPI task
###variable outfile string L15.17
###variable L equal 15.17

units lj

newton off
atom_style      sphere
boundary        p p p
comm_modify     mode single vel yes


region      boxid block 0.0     $L      0.0       $L      0.0       $L
region      boxid block 0.0     5.733683388133033      0.0       $L      0.0       $L
region      boxid block 0.0     5.733683388133033      0.0       5.733683388133033      0.0       $L
region      boxid block 0.0     5.733683388133033      0.0       5.733683388133033      0.0       5.733683388133033
#create_box  1 boxid
include create_box.in
create_box 1 boxid
Created orthogonal box = (0 0 0) to (5.7336834 5.7336834 5.7336834)
  1 by 1 by 1 MPI processor grid


######
include create_np.in
create_atoms 1 random 54 8155 boxid
Created 54 atoms
  using lattice units in orthogonal box = (0 0 0) to (5.7336834 5.7336834 5.7336834)
  create_atoms CPU = 0.000 seconds
velocity    all create 1.0 87287 dist gaussian

#####
include particles.in
set type 1 diameter 1.0
Setting atom values ...
  54 settings made for diameter
set type 1 mass 26.0
Setting atom values ...
  54 settings made for mass

###
fix 1 all langevin 1.0 1.0 0.1 12345
fix 2 all nve/sphere

###
pair_style lj/cut 1.
include pots_lj_lan.in
pair_coeff 1 1 10.0 1.0 1.122462048309373
pair_modify shift yes



minimize          1.0e-4 1.0e-6 1000 1000
Generated 0 of 0 mixed pair_coeff terms from geometric mixing rule
Neighbor list info ...
  update: every = 1 steps, delay = 0 steps, check = yes
  max neighbors/atom: 2000, page size: 100000
  master list distance cutoff = 1.422462
  ghost atom cutoff = 1.422462
  binsize = 0.71123102, bins = 9 9 9
  1 neighbor lists, perpetual/occasional/extra = 1 0 0
  (1) pair lj/cut, perpetual
      attributes: half, newton off
      pair build: half/bin/newtoff
      stencil: full/bin/3d
      bin: standard
Per MPI rank memory allocation (min/avg/max) = 5.443 | 5.443 | 5.443 Mbytes
   Step          Temp          E_pair         E_mol          TotEng         Press     
         0   49.656342      5.4007463e+12  0              5.4007463e+12  6.1888006e+12
        34   49.656342      5.9507733e-09  0              73.105171      13.962097    
Loop time of 0.000660752 on 1 procs for 34 steps with 54 atoms

672.7% CPU use with 1 MPI tasks x 1 OpenMP threads

Minimization stats:
  Stopping criterion = quadratic factors are zero
  Energy initial, next-to-last, final = 
      5400746330924.02 5.95077333911233e-09 5.95077333911233e-09
  Force two-norm initial, final = 5.8404032e+16 0.027108094
  Force max component initial, final = 3.3417968e+16 0.016430027
  Final line search alpha, max atom move = 0.5 0.0082150134
  Iterations, force evaluations = 34 127

MPI task timing breakdown:
Section |  min time  |  avg time  |  max time  |%varavg| %total
---------------------------------------------------------------
Pair    | 0.00014519 | 0.00014519 | 0.00014519 |   0.0 | 21.97
Neigh   | 0.00020188 | 0.00020188 | 0.00020188 |   0.0 | 30.55
Comm    | 0.00017796 | 0.00017796 | 0.00017796 |   0.0 | 26.93
Output  | 0          | 0          | 0          |   0.0 |  0.00
Modify  | 0          | 0          | 0          |   0.0 |  0.00
Other   |            | 0.0001357  |            |       | 20.54

Nlocal:             54 ave          54 max          54 min
Histogram: 1 0 0 0 0 0 0 0 0 0
Nghost:            108 ave         108 max         108 min
Histogram: 1 0 0 0 0 0 0 0 0 0
Neighs:            112 ave         112 max         112 min
Histogram: 1 0 0 0 0 0 0 0 0 0

Total # of neighbors = 112
Ave neighs/atom = 2.0740741
Neighbor list builds = 9
Dangerous builds = 0

thermo_style custom step temp ke pe etotal
thermo 500
timestep 0.001
#dump    id all custom 5000 out_lan_${outfile}.lammpstrj id type radius mass xu yu zu vx vy vz fx fy fz
dump    id all custom 5000 out_lan_${outfile}.lammpstrj id type radius mass x y z
dump    id all custom 5000 out_lan_1708800046.lammpstrj id type radius mass x y z
run 100000
Generated 0 of 0 mixed pair_coeff terms from geometric mixing rule
Per MPI rank memory allocation (min/avg/max) = 4.318 | 4.318 | 4.318 Mbytes
   Step          Temp          KinEng         PotEng         TotEng    
        34   49.656342      73.105171      5.9507733e-09  73.105171    
       500   0.84087598     1.2379563      0.18226526     1.4202216    
      1000   1.0831982      1.5947085      0.12704257     1.7217511    
      1500   1.049838       1.5455948      0.081362666    1.6269575    
      2000   1.1456381      1.6866339      0.10098151     1.7876154    
      2500   1.0483923      1.5434664      0.088263084    1.6317295    
      3000   1.0058958      1.4809021      0.10692003     1.5878221    
      3500   1.1710944      1.7241112      0.055599399    1.7797106    
      4000   0.94807292     1.395774       0.04935105     1.4451251    
      4500   1.0007617      1.4733437      0.17194674     1.6452904    
      5000   1.0268923      1.5118137      0.15044661     1.6622603    
      5500   0.96564739     1.4216476      0.14411191     1.5657595    
      6000   0.82219811     1.2104583      0.17891777     1.3893761    
      6500   1.0755411      1.5834355      0.028189115    1.6116246    
      7000   1.2013504      1.7686548      0.057249124    1.8259039    
      7500   0.80803346     1.1896048      0.10738797     1.2969928    
      8000   1.1471786      1.6889018      0.012619104    1.7015209    
      8500   0.89575446     1.3187496      0.08645896     1.4052086    
      9000   1.0054657      1.480269       0.062927426    1.5431964    
      9500   0.91060025     1.3406059      0.099970923    1.4405769    
     10000   1.2230285      1.8005697      0.042579139    1.8431489    
     10500   1.1223282      1.6523165      0.061558083    1.7138746    
     11000   1.036505       1.5259657      0.068406481    1.5943722    
     11500   0.77734745     1.1444282      0.051851237    1.1962794    
     12000   1.0156148      1.4952107      0.033050805    1.5282616    
     12500   1.1512211      1.6948533      0.059752982    1.7546063    
     13000   0.9542559      1.4048767      0.07780816     1.4826849    
     13500   0.91029191     1.340152       0.066021       1.406173     
     14000   0.89465703     1.317134       0.027512161    1.3446461    
     14500   1.0387578      1.5292823      0.078718109    1.6080004    
     15000   1.0766853      1.58512        0.071049163    1.6561692    
     15500   0.94478085     1.3909274      0.016626742    1.4075541    
     16000   1.0303352      1.5168824      0.20967542     1.7265578    
     16500   0.69431446     1.0221852      0.055159071    1.0773442    
     17000   1.1955296      1.7600853      0.10832395     1.8684093    
     17500   1.0407029      1.532146       0.041920873    1.5740669    
     18000   0.89219235     1.3135054      0.032045638    1.345551     
     18500   0.99323765     1.4622665      0.068731387    1.5309979    
     19000   0.97863319     1.4407655      0.042277583    1.4830431    
     19500   0.98324874     1.4475606      0.11802982     1.5655905    
     20000   0.94845856     1.3963418      0.044301682    1.4406435    
     20500   0.95428699     1.4049225      0.11272232     1.5176448    
     21000   1.0162131      1.4960915      0.090772824    1.5868643    
     21500   1.051075       1.547416       0.075081327    1.6224973    
     22000   1.0369575      1.5266318      0.067017293    1.5936491    
     22500   1.0527776      1.5499226      0.072456405    1.622379     
     23000   0.91146569     1.34188        0.05445551     1.3963356    
     23500   0.96502514     1.4207315      0.071477865    1.4922093    
     24000   1.0717683      1.5778811      0.015615083    1.5934962    
     24500   1.1284436      1.6613197      0.06369729     1.725017     
     25000   0.90131306     1.3269331      0.093959517    1.4208926    
     25500   0.85735897     1.2622229      0.062840686    1.3250636    
     26000   1.0210271      1.5031787      0.015482798    1.5186615    
     26500   0.98265777     1.4466906      0.072582142    1.5192728    
     27000   1.0519606      1.5487198      0.043903334    1.5926231    
     27500   1.0506154      1.5467394      0.083139653    1.6298791    
     28000   1.1240064      1.6547873      0.014181525    1.6689688    
     28500   1.1360629      1.6725371      0.022491261    1.6950284    
     29000   0.96610838     1.4223262      0.10924031     1.5315665    
     29500   0.98715288     1.4533084      0.017623003    1.4709314    
     30000   0.97313008     1.4326637      0.060615069    1.4932788    
     30500   1.2254148      1.8040829      0.062019478    1.8661023    
     31000   1.0920985      1.6078117      0.11004735     1.717859     
     31500   1.0431552      1.5357563      0.082914095    1.6186704    
     32000   0.98682225     1.4528216      0.1161408      1.5689624    
     32500   0.95340269     1.4036206      0.054678025    1.4582986    
     33000   1.200537       1.7674572      0.041795693    1.8092529    
     33500   0.99302345     1.4619512      0.01657228     1.4785235    
     34000   1.0018432      1.4749358      0.033745007    1.5086808    
     34500   1.0660677      1.5694886      0.085017221    1.6545058    
     35000   1.0230081      1.5060952      0.046126537    1.5522217    
     35500   0.99812519     1.4694621      0.086748107    1.5562102    
     36000   1.0432617      1.535913       0.026332435    1.5622455    
     36500   0.97364357     1.4334197      0.059596716    1.4930164    
     37000   1.2322816      1.8141924      0.014427617    1.82862      
     37500   0.89466815     1.3171503      0.028651616    1.3458019    
     38000   1.0819859      1.5929237      0.073927178    1.6668509    
     38500   1.0597205      1.5601441      0.1062571      1.6664012    
     39000   1.1223768      1.652388       0.015439641    1.6678277    
     39500   0.89964017     1.3244702      0.058935386    1.3834056    
     40000   1.0479705      1.5428454      0.020059455    1.5629048    
     40500   1.1199642      1.6488362      0.0063937987   1.65523      
     41000   1.1138804      1.6398795      0.045279332    1.6851589    
     41500   0.86654537     1.2757473      0.13683151     1.4125789    
     42000   1.0067043      1.4820924      0.012651043    1.4947435    
     42500   1.1044041      1.6259282      0.055111769    1.68104      
     43000   0.92527763     1.3622143      0.1078019      1.4700162    
     43500   0.88715645     1.3060914      0.021040313    1.3271318    
     44000   1.2547208      1.8472279      0.066147158    1.9133751    
     44500   0.80700267     1.1880873      0.060563941    1.2486512    
     45000   0.94705448     1.3942747      0.022939632    1.4172143    
     45500   1.014179       1.4930969      0.050641325    1.5437382    
     46000   0.92743382     1.3653887      0.037000482    1.4023892    
     46500   1.1685599      1.7203798      0.069951227    1.790331     
     47000   0.94682882     1.3939424      0.034083796    1.4280262    
     47500   1.2283691      1.8084322      0.084120144    1.8925524    
     48000   1.1329318      1.6679273      0.07092485     1.7388522    
     48500   1.0909205      1.6060774      0.07066567     1.676743     
     49000   1.2615528      1.8572861      0.074595048    1.9318812    
     49500   0.95830208     1.4108336      0.052736127    1.4635697    
     50000   0.95613731     1.4076466      0.040411162    1.4480578    
     50500   0.84801774     1.2484706      0.071809739    1.3202803    
     51000   1.0490869      1.5444891      0.065592625    1.6100817    
     51500   0.93867085     1.3819321      0.074223253    1.4561553    
     52000   1.0282263      1.5137777      0.11276862     1.6265463    
     52500   0.91566719     1.3480656      0.19156831     1.5396339    
     53000   1.0115785      1.4892683      0.086245111    1.5755134    
     53500   0.8482706      1.2488428      0.066636845    1.3154797    
     54000   1.1018221      1.622127       0.097817018    1.719944     
     54500   1.2517277      1.8428213      0.05760724     1.9004285    
     55000   0.89883039     1.3232781      0.080990262    1.4042683    
     55500   1.0698353      1.5750352      0.050707694    1.6257429    
     56000   0.9322394      1.3724636      0.068426656    1.4408902    
     56500   1.0675331      1.571646       0.019824853    1.5914709    
     57000   0.93904136     1.3824776      0.073255739    1.4557333    
     57500   0.90200561     1.3279527      0.045930646    1.3738834    
     58000   1.135838       1.6722059      0.014499946    1.6867059    
     58500   1.1661284      1.7168002      0.032150234    1.7489504    
     59000   1.1445696      1.6850608      0.041481994    1.7265428    
     59500   1.0871255      1.6004903      0.062242481    1.6627328    
     60000   0.97142061     1.430147       0.051413722    1.4815607    
     60500   0.88968114     1.3098083      0.1048477      1.414656     
     61000   1.0597786      1.5602297      0.08172804     1.6419577    
     61500   0.86855141     1.2787007      0.11005898     1.3887597    
     62000   0.93241715     1.3727252      0.10593129     1.4786565    
     62500   1.0517998      1.5484831      0.0670751      1.6155582    
     63000   0.99216659     1.4606897      0.11329082     1.5739805    
     63500   1.0507601      1.5469524      0.033097921    1.5800503    
     64000   0.96918788     1.4268599      0.16212507     1.588985     
     64500   0.92735416     1.3652714      0.17077508     1.5360465    
     65000   1.0740607      1.581256       0.03701063     1.6182667    
     65500   0.98433378     1.4491581      0.059777649    1.5089357    
     66000   1.0083898      1.4845739      0.066595861    1.5511698    
     66500   1.018417       1.4993361      0.028125378    1.5274615    
     67000   1.0433885      1.5360998      0.057462486    1.5935623    
     67500   0.94046982     1.3845806      0.016710048    1.4012906    
     68000   1.1199363      1.6487952      0.098280063    1.7470752    
     68500   1.1211469      1.6505773      0.09084396     1.7414213    
     69000   0.9354979      1.3772608      0.10202629     1.4792871    
     69500   0.81249173     1.1961684      0.036124316    1.2322927    
     70000   1.0017573      1.4748094      0.084610759    1.5594202    
     70500   1.2804365      1.8850871      0.082890748    1.9679778    
     71000   0.90523568     1.3327081      0.068679597    1.4013877    
     71500   1.098523       1.61727        0.063598325    1.6808683    
     72000   0.83049077     1.222667       0.085853374    1.3085203    
     72500   1.225531       1.8042539      0.028253953    1.8325079    
     73000   0.89329949     1.3151354      0.20361773     1.5187531    
     73500   1.1888137      1.7501979      0.016348162    1.766546     
     74000   1.1258063      1.657437       0.042905415    1.7003425    
     74500   1.0905201      1.6054879      0.079298937    1.6847868    
     75000   1.0083535      1.4845205      0.089503591    1.5740241    
     75500   1.1223943      1.6524138      0.15140112     1.8038149    
     76000   1.3444671      1.9793543      0.029310872    2.0086652    
     76500   0.87711955     1.2913149      0.051191731    1.3425066    
     77000   1.0039703      1.4780674      0.057376094    1.5354435    
     77500   1.1551734      1.7006719      0.089918412    1.7905903    
     78000   0.99967813     1.4717484      0.12533743     1.5970858    
     78500   0.93775408     1.3805824      0.071224371    1.4518068    
     79000   1.009095       1.4856121      0.13284265     1.6184548    
     79500   0.87844067     1.2932599      0.039914683    1.3331746    
     80000   1.1564374      1.7025329      0.060812984    1.7633458    
     80500   0.98604198     1.4516729      0.034288835    1.4859617    
     81000   0.91282793     1.3438856      0.040291292    1.3841769    
     81500   1.1998267      1.7664115      0.038735896    1.8051474    
     82000   0.83892615     1.2350857      0.042146538    1.2772323    
     82500   1.1350218      1.6710043      0.044986679    1.7159909    
     83000   0.99598341     1.4663089      0.029143458    1.4954524    
     83500   1.0128341      1.4911168      0.10310743     1.5942243    
     84000   1.0498068      1.5455489      0.032428693    1.5779776    
     84500   0.90625747     1.3342124      0.13678142     1.4709938    
     85000   0.88465556     1.3024096      0.050064156    1.3524737    
     85500   0.89833352     1.3225466      0.11112936     1.4336759    
     86000   1.0252297      1.5093659      0.028321838    1.5376878    
     86500   0.91647324     1.3492523      0.059103186    1.4083555    
     87000   1.0327048      1.5203709      0.014155846    1.5345267    
     87500   1.139048       1.6769317      0.12448155     1.8014133    
     88000   1.0976264      1.61595        0.13399715     1.7499471    
     88500   1.1453671      1.6862348      0.098913128    1.785148     
     89000   0.9760099      1.4369035      0.098256772    1.5351602    
     89500   0.97818195     1.4401012      0.089539301    1.5296405    
     90000   0.88213339     1.2986964      0.021730831    1.3204272    
     90500   0.97880123     1.4410129      0.10591534     1.5469283    
     91000   0.9970055      1.4678137      0.075722311    1.543536     
     91500   1.0356672      1.5247323      0.037836455    1.5625687    
     92000   1.0015454      1.4744974      0.069883919    1.5443813    
     92500   1.0144982      1.4935668      0.089351146    1.582918     
     93000   0.85960124     1.265524       0.062736778    1.3282608    
     93500   0.988124       1.4547381      0.11693913     1.5716772    
     94000   1.0865448      1.5996354      0.08066404     1.6802994    
     94500   1.0416305      1.5335116      0.057186803    1.5906984    
     95000   1.0843807      1.5964493      0.033884665    1.630334     
     95500   1.1767898      1.732496       0.041955358    1.7744514    
     96000   1.0652061      1.5682201      0.014343451    1.5825635    
     96500   0.96640993     1.4227702      0.032792201    1.4555624    
     97000   0.94879553     1.3968379      0.0073780703   1.4042159    
     97500   1.2114164      1.7834741      0.15299684     1.936471     
     98000   1.0817366      1.5925567      0.061113559    1.6536703    
     98500   0.96186012     1.4160718      0.03696267     1.4530345    
     99000   0.94299636     1.3883002      0.0079467832   1.396247     
     99500   0.87910656     1.2942402      0.033656509    1.3278967    
    100000   1.0518703      1.5485868      0.13482468     1.6834115    
    100034   1.1000259      1.6194826      0.11697486     1.7364574    
Loop time of 0.446027 on 1 procs for 100000 steps with 54 atoms

Performance: 19371022.583 tau/day, 224201.650 timesteps/s, 12.107 Matom-step/s
152.8% CPU use with 1 MPI tasks x 1 OpenMP threads

MPI task timing breakdown:
Section |  min time  |  avg time  |  max time  |%varavg| %total
---------------------------------------------------------------
Pair    | 0.037058   | 0.037058   | 0.037058   |   0.0 |  8.31
Neigh   | 0.0050297  | 0.0050297  | 0.0050297  |   0.0 |  1.13
Comm    | 0.085773   | 0.085773   | 0.085773   |   0.0 | 19.23
Output  | 0.0029169  | 0.0029169  | 0.0029169  |   0.0 |  0.65
Modify  | 0.29449    | 0.29449    | 0.29449    |   0.0 | 66.03
Other   |            | 0.02076    |            |       |  4.65

Nlocal:             54 ave          54 max          54 min
Histogram: 1 0 0 0 0 0 0 0 0 0
Nghost:            113 ave         113 max         113 min
Histogram: 1 0 0 0 0 0 0 0 0 0
Neighs:             88 ave          88 max          88 min
Histogram: 1 0 0 0 0 0 0 0 0 0

Total # of neighbors = 88
Ave neighs/atom = 1.6296296
Neighbor list builds = 268
Dangerous builds = 0

write_data data.${outfile} nocoeff nofix
write_data data.1708800046 nocoeff nofix
System init for write_data ...
Generated 0 of 0 mixed pair_coeff terms from geometric mixing rule
Total wall time: 0:00:00
