LAMMPS (21 Nov 2023)
OMP_NUM_THREADS environment is not set. Defaulting to 1 thread. (src/comm.cpp:98)
  using 1 OpenMP thread(s) per MPI task
###variable outfile string L15.17
###variable L equal 15.17

units lj

newton off
atom_style      sphere
boundary        p p p
comm_modify     mode single vel yes


region      boxid block 0.0     $L      0.0       $L      0.0       $L
region      boxid block 0.0     7.223988394141365      0.0       $L      0.0       $L
region      boxid block 0.0     7.223988394141365      0.0       7.223988394141365      0.0       $L
region      boxid block 0.0     7.223988394141365      0.0       7.223988394141365      0.0       7.223988394141365
#create_box  1 boxid
include create_box.in
create_box 1 boxid
Created orthogonal box = (0 0 0) to (7.2239884 7.2239884 7.2239884)
  1 by 1 by 1 MPI processor grid


######
include create_np.in
create_atoms 1 random 72 4740 boxid
Created 72 atoms
  using lattice units in orthogonal box = (0 0 0) to (7.2239884 7.2239884 7.2239884)
  create_atoms CPU = 0.000 seconds
velocity    all create 1.0 87287 dist gaussian

#####
include particles.in
set type 1 diameter 1.0
Setting atom values ...
  72 settings made for diameter
set type 1 mass 26.0
Setting atom values ...
  72 settings made for mass

###
fix 1 all langevin 1.0 1.0 0.1 12345
fix 2 all nve/sphere

###
pair_style lj/cut 1.
include pots_lj_lan.in
pair_coeff 1 1 10.0 1.0 1.122462048309373
pair_modify shift yes



minimize          1.0e-4 1.0e-6 1000 1000
Generated 0 of 0 mixed pair_coeff terms from geometric mixing rule
Neighbor list info ...
  update: every = 1 steps, delay = 0 steps, check = yes
  max neighbors/atom: 2000, page size: 100000
  master list distance cutoff = 1.422462
  ghost atom cutoff = 1.422462
  binsize = 0.71123102, bins = 11 11 11
  1 neighbor lists, perpetual/occasional/extra = 1 0 0
  (1) pair lj/cut, perpetual
      attributes: half, newton off
      pair build: half/bin/newtoff
      stencil: full/bin/3d
      bin: standard
Per MPI rank memory allocation (min/avg/max) = 5.448 | 5.448 | 5.448 Mbytes
   Step          Temp          E_pair         E_mol          TotEng         Press     
         0   49.656342      1213134        0              1213207.4      927239.92    
        18   49.656342      0.00037202143  0              73.450378      9.3650843    
Loop time of 0.000356976 on 1 procs for 18 steps with 72 atoms

469.2% CPU use with 1 MPI tasks x 1 OpenMP threads

Minimization stats:
  Stopping criterion = quadratic factors are zero
  Energy initial, next-to-last, final = 
      1213133.99581334 0.000372021431044805 0.000372021431044805
  Force two-norm initial, final = 4.6262947e+09 7.9509044
  Force max component initial, final = 2.9656768e+09 3.0194205
  Final line search alpha, max atom move = 0.0082797344 0.025
  Iterations, force evaluations = 18 48

MPI task timing breakdown:
Section |  min time  |  avg time  |  max time  |%varavg| %total
---------------------------------------------------------------
Pair    | 6.1539e-05 | 6.1539e-05 | 6.1539e-05 |   0.0 | 17.24
Neigh   | 0.00013783 | 0.00013783 | 0.00013783 |   0.0 | 38.61
Comm    | 7.617e-05  | 7.617e-05  | 7.617e-05  |   0.0 | 21.34
Output  | 0          | 0          | 0          |   0.0 |  0.00
Modify  | 0          | 0          | 0          |   0.0 |  0.00
Other   |            | 8.144e-05  |            |       | 22.81

Nlocal:             72 ave          72 max          72 min
Histogram: 1 0 0 0 0 0 0 0 0 0
Nghost:            109 ave         109 max         109 min
Histogram: 1 0 0 0 0 0 0 0 0 0
Neighs:            106 ave         106 max         106 min
Histogram: 1 0 0 0 0 0 0 0 0 0

Total # of neighbors = 106
Ave neighs/atom = 1.4722222
Neighbor list builds = 5
Dangerous builds = 0

thermo_style custom step temp ke pe etotal
thermo 500
timestep 0.001
#dump    id all custom 5000 out_lan_${outfile}.lammpstrj id type radius mass xu yu zu vx vy vz fx fy fz
dump    id all custom 5000 out_lan_${outfile}.lammpstrj id type radius mass x y z
dump    id all custom 5000 out_lan_1709053286.lammpstrj id type radius mass x y z
run 100000
Generated 0 of 0 mixed pair_coeff terms from geometric mixing rule
Per MPI rank memory allocation (min/avg/max) = 4.323 | 4.323 | 4.323 Mbytes
   Step          Temp          KinEng         PotEng         TotEng    
        18   49.656342      73.450006      0.00037202143  73.450378    
       500   1.0047755      1.4862305      0.1284148      1.6146453    
      1000   1.1060026      1.6359622      0.04777526     1.6837374    
      1500   0.93727794     1.3863903      0.071797804    1.4581881    
      2000   1.0258253      1.5173666      0.059899785    1.5772664    
      2500   1.1765465      1.7403083      0.099313628    1.839622     
      3000   1.061283       1.5698145      0.089703281    1.6595178    
      3500   1.0194263      1.5079015      0.023247485    1.5311489    
      4000   0.95677815     1.4152344      0.13222737     1.5474617    
      4500   1.1171289      1.6524199      0.060316617    1.7127365    
      5000   1.1217002      1.6591816      0.067841973    1.7270236    
      5500   0.96547497     1.4280984      0.014534611    1.442633     
      6000   1.0934251      1.617358       0.048689355    1.6660473    
      6500   1.0050171      1.4865878      0.035795183    1.522383     
      7000   0.89401304     1.3223943      0.04564612     1.3680404    
      7500   1.0469773      1.5486539      0.11144036     1.6600943    
      8000   0.81017601     1.1983854      0.029866176    1.2282515    
      8500   1.041007       1.5398228      0.056954389    1.5967772    
      9000   1.1168973      1.6520773      0.10353243     1.7556097    
      9500   0.98364433     1.4549739      0.083890951    1.5388649    
     10000   1.0704457      1.5833676      0.035728861    1.6190964    
     10500   1.0553473      1.5610346      0.022420939    1.5834555    
     11000   1.08698        1.6078245      0.035916793    1.6437413    
     11500   1.0156741      1.5023513      0.025644131    1.5279954    
     12000   0.85482456     1.264428       0.10913531     1.3735633    
     12500   0.82989348     1.2275508      0.018811669    1.2463624    
     13000   0.86054646     1.2728916      0.037165937    1.3100576    
     13500   1.1311407      1.6731456      0.03423838     1.707384     
     14000   1.0688463      1.5810019      0.032722686    1.6137246    
     14500   0.97070064     1.435828       0.073979013    1.509807     
     15000   0.93496221     1.3829649      0.029155727    1.4121207    
     15500   1.0710489      1.5842598      0.0099527522   1.5942126    
     16000   1.0636295      1.5732853      0.059492861    1.6327781    
     16500   0.97078908     1.4359588      0.059474355    1.4954332    
     17000   0.9384337      1.3880999      0.076026411    1.4641263    
     17500   0.84026038     1.2428851      0.022022138    1.2649073    
     18000   0.98978855     1.4640622      0.049417432    1.5134797    
     18500   0.98538491     1.4575485      0.042685756    1.5002343    
     19000   1.1425406      1.690008       0.062474276    1.7524823    
     19500   1.0789923      1.5960095      0.0086271395   1.6046366    
     20000   1.0052332      1.4869075      0.010031228    1.4969387    
     20500   0.92553945     1.3690271      0.032487231    1.4015143    
     21000   1.1227517      1.6607368      0.087844499    1.7485813    
     21500   1.0268232      1.5188427      0.069771292    1.588614     
     22000   1.0525828      1.5569453      0.060437455    1.6173828    
     22500   0.98635639     1.4589855      0.027514572    1.4865001    
     23000   1.0609881      1.5693782      0.013361796    1.58274      
     23500   0.88256387     1.3054591      0.027111897    1.3325709    
     24000   1.0511944      1.5548917      0.032376549    1.5872682    
     24500   1.0829184      1.6018169      0.023152525    1.6249694    
     25000   1.0429778      1.5427381      0.033286188    1.5760243    
     25500   1.1509406      1.702433       0.096501532    1.7989346    
     26000   0.98982778     1.4641203      0.075100231    1.5392205    
     26500   1.2039497      1.7808422      0.046339587    1.8271818    
     27000   0.8503379      1.2577915      0.077290296    1.3350818    
     27500   1.0194098      1.507877       0.026979106    1.5348561    
     28000   1.1369502      1.6817388      0.046405899    1.7281447    
     28500   0.88138087     1.3037092      0.062072738    1.3657819    
     29000   1.1234952      1.6618367      0.050544252    1.7123809    
     29500   0.96647134     1.4295722      0.026736244    1.4563084    
     30000   1.1599609      1.7157755      0.095517724    1.8112932    
     30500   0.88401048     1.3075988      0.10160661     1.4092055    
     31000   1.1408574      1.6875182      0.011576035    1.6990942    
     31500   0.95250201     1.4089092      0.11379362     1.5227028    
     32000   1.163669       1.7212604      0.0065957288   1.7278561    
     32500   0.9292562      1.3745248      0.035068949    1.4095937    
     33000   0.98352569     1.4547984      0.076360412    1.5311588    
     33500   0.9572419      1.4159203      0.069864598    1.4857849    
     34000   1.0681939      1.5800368      0.03119128     1.6112281    
     34500   0.97488803     1.4420219      0.076867095    1.518889     
     35000   1.1087461      1.6400203      0.038182504    1.6782028    
     35500   0.94580975     1.3990103      0.022004712    1.421015     
     36000   1.1809702      1.7468518      0.037418097    1.7842699    
     36500   0.99121528     1.4661726      0.058983143    1.5251557    
     37000   1.0613844      1.5699644      0.041160772    1.6111252    
     37500   0.9883575      1.4619455      0.049876205    1.5118217    
     38000   1.0763432      1.592091       0.014925782    1.6070168    
     38500   1.0379858      1.5353541      0.039384728    1.5747388    
     39000   0.93523262     1.3833649      0.023005915    1.4063708    
     39500   0.94694518     1.4006897      0.051350149    1.4520399    
     40000   0.94938639     1.4043007      0.053719988    1.4580207    
     40500   1.0029506      1.4835311      0.050294655    1.5338257    
     41000   0.9299655      1.375574       0.016552178    1.3921261    
     41500   1.0243504      1.5151849      0.020153392    1.5353383    
     42000   1.0193646      1.5078101      0.024386289    1.5321964    
     42500   1.1003936      1.6276655      0.010295071    1.6379605    
     43000   0.96791577     1.4317087      0.068711523    1.5004203    
     43500   1.0668449      1.5780414      0.037323881    1.6153653    
     44000   1.1345041      1.6781207      0.028144806    1.7062655    
     44500   0.84354348     1.2477414      0.069080703    1.3168221    
     45000   0.94866659     1.403236       0.094972884    1.4982089    
     45500   0.96333886     1.4249387      0.047059855    1.4719986    
     46000   0.96681468     1.43008        0.052368868    1.4824489    
     46500   0.93822874     1.3877967      0.064387593    1.4521843    
     47000   1.1067807      1.6371131      0.022058716    1.6591718    
     47500   1.001676       1.4816458      0.057289637    1.5389354    
     48000   0.94843581     1.4028946      0.042502495    1.4453971    
     48500   0.98823268     1.4617608      0.021199734    1.4829606    
     49000   1.0520422      1.5561458      0.085723021    1.6418688    
     49500   1.0388126      1.5365769      0.030716818    1.5672937    
     50000   1.1749076      1.7378842      0.03672918     1.7746134    
     50500   0.96542392     1.4280229      0.063302134    1.491325     
     51000   0.89159539     1.3188182      0.088536896    1.4073551    
     51500   0.83692522     1.2379519      0.043471648    1.2814235    
     52000   0.90667644     1.3411256      0.039207113    1.3803327    
     52500   0.97230642     1.4382032      0.028419939    1.4666232    
     53000   1.2049958      1.7823896      0.07372314     1.8561127    
     53500   0.99611873     1.4734256      0.054841462    1.5282671    
     54000   1.1133998      1.6469039      0.011859783    1.6587637    
     54500   0.99516273     1.4720115      0.02625465     1.4982662    
     55000   1.080444       1.5981567      0.069370124    1.6675268    
     55500   1.0900347      1.6123429      0.049254272    1.6615972    
     56000   0.98633966     1.4589608      0.0800907      1.5390515    
     56500   1.0570126      1.5634979      0.067955488    1.6314533    
     57000   0.95651806     1.4148496      0.039778569    1.4546282    
     57500   1.0900167      1.6123163      0.082253695    1.69457      
     58000   0.94956854     1.4045701      0.089223164    1.4937933    
     58500   1.0617042      1.5704374      0.031749177    1.6021866    
     59000   1.1225161      1.6603884      0.08733145     1.7477198    
     59500   1.0570226      1.5635126      0.060069768    1.6235823    
     60000   1.2520188      1.8519445      0.12266765     1.9746121    
     60500   1.0069128      1.4893918      0.067656592    1.5570484    
     61000   0.93725223     1.3863523      0.040505304    1.4268576    
     61500   0.95969632     1.4195508      0.014394253    1.4339451    
     62000   0.89006346     1.3165522      0.025174562    1.3417268    
     62500   1.0653627      1.575849       0.0098059346   1.585655     
     63000   1.0484389      1.5508159      0.043370579    1.5941865    
     63500   0.96557676     1.428249       0.062036503    1.4902855    
     64000   0.99000888     1.4643881      0.02685898     1.4912471    
     64500   1.0677643      1.5794014      0.04365756     1.623059     
     65000   0.88687098     1.31183        0.048007104    1.3598371    
     65500   0.94984278     1.4049758      0.091522897    1.4964987    
     66000   1.0540602      1.5591307      0.042678591    1.6018093    
     66500   1.0046843      1.4860955      0.0052959281   1.4913914    
     67000   1.0198715      1.50856        0.019785603    1.5283456    
     67500   0.91029468     1.3464776      0.037916916    1.3843945    
     68000   0.94749004     1.4014957      0.018752702    1.4202484    
     68500   1.0448652      1.5455297      0.04629364     1.5918233    
     69000   1.130686       1.672473       0.096911144    1.7693842    
     69500   1.0496706      1.5526377      0.06488942     1.6175271    
     70000   1.2207804      1.8057377      0.05554543     1.8612831    
     70500   1.0687651      1.5808817      0.045075051    1.6259568    
     71000   1.0317697      1.5261594      0.043331492    1.5694909    
     71500   0.92344526     1.3659294      0.027531384    1.3934608    
     72000   1.0101757      1.4942183      0.061233161    1.5554514    
     72500   1.0661036      1.576945       0.0393458      1.6162908    
     73000   1.3220086      1.9554711      0.029321105    1.9847922    
     73500   0.99928424     1.4781079      0.014214465    1.4923224    
     74000   1.0300074      1.5235526      0.013759641    1.5373122    
     74500   1.0250535      1.5162249      0.090437958    1.6066629    
     75000   0.84988792     1.2571259      0.007001943    1.2641278    
     75500   1.0831722      1.6021921      0.039625355    1.6418175    
     76000   0.99426261     1.4706801      0.040176456    1.5108566    
     76500   1.2265111      1.8142143      0.014767664    1.8289819    
     77000   1.2750108      1.8859535      0.13805225     2.0240058    
     77500   1.256775       1.8589797      0.03802006     1.8969998    
     78000   0.99055708     1.465199       0.0508509      1.5160499    
     78500   0.90528455     1.3390667      0.06462555     1.4036923    
     79000   1.0235653      1.5140237      0.02689017     1.5409139    
     79500   0.9806887      1.450602       0.02100701     1.471609     
     80000   0.90893851     1.3444715      0.010136476    1.354608     
     80500   0.94084697     1.3916695      0.017186824    1.4088563    
     81000   0.9719819      1.4377232      0.0090787618   1.446802     
     81500   0.84314806     1.2471565      0.017648559    1.2648051    
     82000   1.2099567      1.7897276      0.05132977     1.8410573    
     82500   1.0741062      1.5887821      0.021140808    1.6099229    
     83000   0.98042107     1.4502062      0.0071797022   1.4573859    
     83500   1.0097461      1.4935827      0.0070175773   1.5006003    
     84000   1.0022669      1.4825197      0.0037034207   1.4862232    
     84500   1.0203742      1.5093036      0.085612968    1.5949165    
     85000   1.0715738      1.5850363      0.026952823    1.6119891    
     85500   0.9230279      1.3653121      0.021815479    1.3871276    
     86000   1.0187793      1.5069444      0.0047854108   1.5117298    
     86500   1.062887       1.5721871      0.053584628    1.6257717    
     87000   1.168259       1.7280498      0.076303875    1.8043537    
     87500   0.98678309     1.4596166      0.040150417    1.4997671    
     88000   1.0663618      1.5773269      0.018310155    1.595637     
     88500   1.2104523      1.7904606      0.063110499    1.8535711    
     89000   1.1784839      1.7431741      0.033143116    1.7763173    
     89500   0.96472536     1.4269896      0.022829665    1.4498193    
     90000   1.0613606      1.5699291      0.030865497    1.6007946    
     90500   0.98065148     1.450547       0.052280972    1.502828     
     91000   0.96572525     1.4284686      0.076566622    1.5050352    
     91500   1.1064084      1.6365624      0.045346008    1.6819084    
     92000   0.9532079      1.4099533      0.076886699    1.48684      
     92500   1.0054755      1.4872659      0.046061561    1.5333274    
     93000   1.0331609      1.5282172      0.036266669    1.5644838    
     93500   1.055237       1.5608714      0.043738218    1.6046096    
     94000   1.0741067      1.5887828      0.084648765    1.6734315    
     94500   0.95541377     1.4132162      0.0092974371   1.4225136    
     95000   1.0828677      1.6017418      0.043683022    1.6454248    
     95500   1.0178821      1.5056172      0.066714976    1.5723322    
     96000   1.097896       1.6239711      0.065344796    1.6893159    
     96500   1.0133585      1.4989261      0.0088653127   1.5077914    
     97000   0.82744807     1.2239336      0.039218882    1.2631525    
     97500   0.93647878     1.3852082      0.024707819    1.409916     
     98000   1.1723198      1.7340563      0.01156151     1.7456178    
     98500   1.0973301      1.6231341      0.036509327    1.6596434    
     99000   0.95163645     1.4076289      0.047625184    1.4552541    
     99500   0.9344273      1.3821737      0.058337324    1.440511     
    100000   1.0085673      1.4918391      0.019232499    1.5110716    
    100018   0.9254985      1.3689665      0.024222436    1.393189     
Loop time of 0.508524 on 1 procs for 100000 steps with 72 atoms

Performance: 16990337.245 tau/day, 196647.422 timesteps/s, 14.159 Matom-step/s
144.6% CPU use with 1 MPI tasks x 1 OpenMP threads

MPI task timing breakdown:
Section |  min time  |  avg time  |  max time  |%varavg| %total
---------------------------------------------------------------
Pair    | 0.034797   | 0.034797   | 0.034797   |   0.0 |  6.84
Neigh   | 0.005598   | 0.005598   | 0.005598   |   0.0 |  1.10
Comm    | 0.090537   | 0.090537   | 0.090537   |   0.0 | 17.80
Output  | 0.0033308  | 0.0033308  | 0.0033308  |   0.0 |  0.65
Modify  | 0.35091    | 0.35091    | 0.35091    |   0.0 | 69.01
Other   |            | 0.02335    |            |       |  4.59

Nlocal:             72 ave          72 max          72 min
Histogram: 1 0 0 0 0 0 0 0 0 0
Nghost:            125 ave         125 max         125 min
Histogram: 1 0 0 0 0 0 0 0 0 0
Neighs:             71 ave          71 max          71 min
Histogram: 1 0 0 0 0 0 0 0 0 0

Total # of neighbors = 71
Ave neighs/atom = 0.98611111
Neighbor list builds = 279
Dangerous builds = 0

write_data data.${outfile} nocoeff nofix
write_data data.1709053286 nocoeff nofix
System init for write_data ...
Generated 0 of 0 mixed pair_coeff terms from geometric mixing rule
Total wall time: 0:00:00
