LAMMPS (21 Nov 2023)
OMP_NUM_THREADS environment is not set. Defaulting to 1 thread. (src/comm.cpp:98)
  using 1 OpenMP thread(s) per MPI task
###variable outfile string L15.17
###variable L equal 15.17

units lj

newton off
atom_style      sphere
boundary        p p p
comm_modify     mode single vel yes


region      boxid block 0.0     $L      0.0       $L      0.0       $L
region      boxid block 0.0     9.101655041974967      0.0       $L      0.0       $L
region      boxid block 0.0     9.101655041974967      0.0       9.101655041974967      0.0       $L
region      boxid block 0.0     9.101655041974967      0.0       9.101655041974967      0.0       9.101655041974967
#create_box  1 boxid
include create_box.in
create_box 1 boxid
Created orthogonal box = (0 0 0) to (9.101655 9.101655 9.101655)
  1 by 1 by 1 MPI processor grid


######
include create_np.in
create_atoms 1 random 72 4421 boxid
Created 72 atoms
  using lattice units in orthogonal box = (0 0 0) to (9.101655 9.101655 9.101655)
  create_atoms CPU = 0.000 seconds
velocity    all create 1.0 87287 dist gaussian

#####
include particles.in
set type 1 diameter 1.0
Setting atom values ...
  72 settings made for diameter
set type 1 mass 26.0
Setting atom values ...
  72 settings made for mass

###
fix 1 all langevin 1.0 1.0 0.1 12345
fix 2 all nve/sphere

###
pair_style lj/cut 1.
include pots_lj_lan.in
pair_coeff 1 1 10.0 1.0 1.122462048309373
pair_modify shift yes



minimize          1.0e-4 1.0e-6 1000 1000
Generated 0 of 0 mixed pair_coeff terms from geometric mixing rule
Neighbor list info ...
  update: every = 1 steps, delay = 0 steps, check = yes
  max neighbors/atom: 2000, page size: 100000
  master list distance cutoff = 1.422462
  ghost atom cutoff = 1.422462
  binsize = 0.71123102, bins = 13 13 13
  1 neighbor lists, perpetual/occasional/extra = 1 0 0
  (1) pair lj/cut, perpetual
      attributes: half, newton off
      pair build: half/bin/newtoff
      stencil: full/bin/3d
      bin: standard
Per MPI rank memory allocation (min/avg/max) = 5.455 | 5.455 | 5.455 Mbytes
   Step          Temp          E_pair         E_mol          TotEng         Press     
         0   49.656342      1125851.6      0              1125925        430213.29    
        16   49.656342      0              0              73.450006      4.6759726    
Loop time of 0.000334514 on 1 procs for 16 steps with 72 atoms

504.3% CPU use with 1 MPI tasks x 1 OpenMP threads

Minimization stats:
  Stopping criterion = force tolerance
  Energy initial, next-to-last, final = 
      1125851.57845868 0.000238820601650024                  0
  Force two-norm initial, final = 4.5956427e+09 0
  Force max component initial, final = 2.6670756e+09 0
  Final line search alpha, max atom move = 0.0082475741 0
  Iterations, force evaluations = 16 46

MPI task timing breakdown:
Section |  min time  |  avg time  |  max time  |%varavg| %total
---------------------------------------------------------------
Pair    | 2.7152e-05 | 2.7152e-05 | 2.7152e-05 |   0.0 |  8.12
Neigh   | 0.00016806 | 0.00016806 | 0.00016806 |   0.0 | 50.24
Comm    | 6.3029e-05 | 6.3029e-05 | 6.3029e-05 |   0.0 | 18.84
Output  | 0          | 0          | 0          |   0.0 |  0.00
Modify  | 0          | 0          | 0          |   0.0 |  0.00
Other   |            | 7.627e-05  |            |       | 22.80

Nlocal:             72 ave          72 max          72 min
Histogram: 1 0 0 0 0 0 0 0 0 0
Nghost:             91 ave          91 max          91 min
Histogram: 1 0 0 0 0 0 0 0 0 0
Neighs:             52 ave          52 max          52 min
Histogram: 1 0 0 0 0 0 0 0 0 0

Total # of neighbors = 52
Ave neighs/atom = 0.72222222
Neighbor list builds = 7
Dangerous builds = 0

thermo_style custom step temp ke pe etotal
thermo 500
timestep 0.001
#dump    id all custom 5000 out_lan_${outfile}.lammpstrj id type radius mass xu yu zu vx vy vz fx fy fz
dump    id all custom 5000 out_lan_${outfile}.lammpstrj id type radius mass x y z
dump    id all custom 5000 out_lan_1709053072.lammpstrj id type radius mass x y z
run 100000
Generated 0 of 0 mixed pair_coeff terms from geometric mixing rule
Per MPI rank memory allocation (min/avg/max) = 4.33 | 4.33 | 4.33 Mbytes
   Step          Temp          KinEng         PotEng         TotEng    
        16   49.656342      73.450006      0              73.450006    
       500   0.99799899     1.4762068      0.098755794    1.5749626    
      1000   1.0596644      1.5674203      0.08190928     1.6493295    
      1500   0.98147909     1.4517711      0.088814936    1.5405861    
      2000   1.036866       1.5336976      0.042127286    1.5758249    
      2500   1.2615376      1.8660244      0.057132133    1.9231565    
      3000   1.0625579      1.5717002      0.0088542645   1.5805544    
      3500   1.0283935      1.5211654      0.024791129    1.5459565    
      4000   0.94992293     1.4050943      0.024052172    1.4291465    
      4500   1.1191613      1.6554262      0.015221808    1.670648     
      5000   1.1747799      1.7376953      0.047201762    1.784897     
      5500   0.96206872     1.42306        0.021149351    1.4442093    
      6000   1.1498414      1.700807       0.0035112615   1.7043183    
      6500   1.0201129      1.508917       0.055749419    1.5646665    
      7000   0.89420919     1.3226844      0.0029589214   1.3256433    
      7500   1.1185495      1.6545211      0.024468179    1.6789892    
      8000   0.77966651     1.1532567      0.00027091689  1.1535276    
      8500   1.0457633      1.5468582      0.00049756737  1.5473558    
      9000   1.0921284      1.61544        0.013768836    1.6292088    
      9500   1.0179948      1.505784       0.0018079944   1.507592     
     10000   1.1116577      1.644327       0.002302714    1.6466297    
     10500   1.0859673      1.6063266      0.0010968887   1.6074235    
     11000   1.0484678      1.5508586      0.037237561    1.5880961    
     11500   1.0052712      1.4869637      0.018248596    1.5052123    
     12000   0.90704845     1.3416758      0.010420597    1.3520964    
     12500   0.80171152     1.185865       0.026332441    1.2121974    
     13000   0.80517356     1.1909859      0.037776221    1.2287621    
     13500   1.0995606      1.6264334      0.022780283    1.6492137    
     14000   1.0940962      1.6183507      0.00030064375  1.6186513    
     14500   0.97281649     1.4389577      0.014750442    1.4537082    
     15000   0.91903988     1.3594132      0.018310912    1.3777241    
     15500   1.0604285      1.5685505      0.014196339    1.5827468    
     16000   1.0685665      1.580588       0.009343518    1.5899315    
     16500   0.96099683     1.4214745      0.0084831206   1.4299576    
     17000   0.97967632     1.4491046      0.0041818935   1.4532864    
     17500   0.91984528     1.3606045      0.013437798    1.3740423    
     18000   1.0106425      1.4949087      0.007273462    1.5021822    
     18500   0.96014978     1.4202216      0.0039453113   1.4241669    
     19000   1.2430415      1.8386656      0.0030289317   1.8416945    
     19500   1.029392       1.5226423      1.3877076e-05  1.5226561    
     20000   1.0041005      1.4852319      0.012316782    1.4975487    
     20500   0.92669846     1.3707415      0.0017151456   1.3724566    
     21000   1.1342021      1.677674       0.015611862    1.6932858    
     21500   0.9903521      1.4648958      0.0086478771   1.4735437    
     22000   1.0690617      1.5813204      0.034116802    1.6154372    
     22500   1.0060173      1.4880672      0.0061033041   1.4941705    
     23000   1.0188275      1.5070157      0.013071675    1.5200874    
     23500   0.88730586     1.3124733      0.00044852414  1.3129218    
     24000   0.99752637     1.4755078      0.032811272    1.508319     
     24500   1.046368       1.5477526      0.0016382702   1.5493909    
     25000   1.0248636      1.5159441      0.0156822      1.5316263    
     25500   1.1530266      1.7055186      0.020510765    1.7260293    
     26000   1.0284265      1.5212142      0.010149817    1.5313641    
     26500   1.1977285      1.7716401      0.03712533     1.8087655    
     27000   0.9326433      1.3795349      0.0038523343   1.3833872    
     27500   1.0308333      1.5247742      0.061769019    1.5865433    
     28000   1.1670085      1.7262         0.016482886    1.7426829    
     28500   0.89744513     1.3274709      0.018204771    1.3456757    
     29000   1.1445848      1.6930317      0.00010410287  1.6931358    
     29500   0.93178874     1.3782708      0.0073225058   1.3855933    
     30000   1.1002601      1.627468       0.036229545    1.6636976    
     30500   0.83928826     1.2414472      0.0043605232   1.2458077    
     31000   1.1388938      1.6846138      0.0038340787   1.6884479    
     31500   0.98497234     1.4569382      0.0040931661   1.4610314    
     32000   1.1192292      1.6555265      0.0020488203   1.6575753    
     32500   0.91236204     1.3495355      0.0064190196   1.3559545    
     33000   1.0243865      1.5152383      0.013428185    1.5286665    
     33500   0.88301405     1.306125       0.021438074    1.327563     
     34000   1.0369907      1.533882       0.0079281438   1.5418102    
     34500   0.93316607     1.3803081      0.01154999     1.3918581    
     35000   1.0886198      1.6102501      0.032190685    1.6424408    
     35500   0.90866101     1.3440611      0.016007725    1.3600688    
     36000   1.2095399      1.789111       0.051417896    1.8405289    
     36500   0.98861149     1.4623212      0.064607685    1.5269289    
     37000   1.0865043      1.607121       0.021727193    1.6288482    
     37500   1.0255121      1.5169033      0.013430273    1.5303336    
     38000   1.0217965      1.5114073      0.10295952     1.6143668    
     38500   1.0292891      1.5224902      0.018057502    1.5405477    
     39000   0.93582357     1.384239       0.013612       1.397851     
     39500   0.9568567      1.4153505      0.026917555    1.4422681    
     40000   0.96604552     1.4289423      0.038221933    1.4671643    
     40500   0.94967294     1.4047246      0.016530086    1.4212546    
     41000   0.95713821     1.4157669      0.020687765    1.4364547    
     41500   0.99979856     1.4788687      0.033427638    1.5122963    
     42000   1.0244696      1.5153613      0.0026075945   1.5179689    
     42500   1.0773932      1.5936441      0              1.5936441    
     43000   0.98587237     1.4582696      0.035589746    1.4938593    
     43500   1.0700325      1.5827564      0.0070389224   1.5897953    
     44000   1.1802699      1.7458159      0.008165204    1.7539811    
     44500   0.89704684     1.3268818      0.059321697    1.3862035    
     45000   0.9316758      1.3781038      0              1.3781038    
     45500   0.96766897     1.4313437      0.017641361    1.448985     
     46000   1.0669         1.5781229      0.03128591     1.6094088    
     46500   0.98767036     1.4609291      0.038918658    1.4998477    
     47000   1.1097323      1.641479       0.0034117232   1.6448907    
     47500   1.0371359      1.5340968      0.016149007    1.5502458    
     48000   0.97452873     1.4414904      0.012814063    1.4543045    
     48500   0.99907684     1.4778012      0.00024408827  1.4780453    
     49000   0.99799576     1.4762021      0.021095167    1.4972972    
     49500   1.0743019      1.5890716      0.0028903897   1.591962     
     50000   1.1623243      1.7192714      0.037197961    1.7564693    
     50500   0.97686194     1.4449416      0.0090643396   1.454006     
     51000   0.86642161     1.281582       0.00012397207  1.2817059    
     51500   0.86802305     1.2839508      0.05208544     1.3360362    
     52000   0.92842542     1.3732959      0.022751064    1.396047     
     52500   0.97508399     1.4423117      2.0246713e-06  1.4423138    
     53000   1.2211455      1.8062777      0.023630252    1.8299079    
     53500   0.97054851     1.435603       0.031259449    1.4668625    
     54000   1.0986018      1.6250152      0.023838135    1.6488534    
     54500   0.97575507     1.4433044      0.0074526564   1.450757     
     55000   1.1036957      1.6325499      0.013708578    1.6462585    
     55500   1.0396069      1.5377518      0.0029681673   1.54072      
     56000   0.98907807     1.4630113      0.00033281512  1.4633441    
     56500   1.060429       1.5685513      0.014082927    1.5826342    
     57000   0.92982221     1.375362       0.026608876    1.4019709    
     57500   1.1477582      1.6977257      0.020871914    1.7185976    
     58000   1.002854       1.4833882      0.00238185     1.4857701    
     58500   1.0269875      1.5190857      0              1.5190857    
     59000   1.1303968      1.6720453      0.014749817    1.6867952    
     59500   1.090456       1.6129662      0.015232789    1.628199     
     60000   1.304514       1.9295936      0.017120907    1.9467145    
     60500   1.1470627      1.6966969      0.0079984094   1.7046953    
     61000   0.92547214     1.3689275      0.00073612435  1.3696637    
     61500   0.96393709     1.4258236      0.035263137    1.4610867    
     62000   0.8724189      1.290453       1.5049431e-05  1.290468     
     62500   1.0103207      1.4944327      2.5165037e-05  1.4944578    
     63000   1.0231734      1.513444       0.0093180964   1.5227621    
     63500   0.95001607     1.4052321      0.0075205494   1.4127527    
     64000   1.0141541      1.5001029      0.027358933    1.5274619    
     64500   1.1254949      1.6647945      0.0021551493   1.6669496    
     65000   0.88517238     1.3093175      0.032043684    1.3413612    
     65500   0.9661637      1.4291171      0.011760995    1.4408781    
     66000   1.0363889      1.532992       0.029114556    1.5621065    
     66500   0.98880705     1.4626104      0.020948638    1.4835591    
     67000   0.97466294     1.4416889      0.030994863    1.4726838    
     67500   0.89476173     1.3235017      0.053147368    1.3766491    
     68000   0.96029668     1.4204388      0.007797765    1.4282366    
     68500   1.0667215      1.5778589      0.0092189535   1.5870778    
     69000   1.1797987      1.7451189      0.017458112    1.762577     
     69500   1.0613594      1.5699274      0.00319315     1.5731206    
     70000   1.1209067      1.6580078      0.052501706    1.7105095    
     70500   1.0594737      1.5671382      0.020340968    1.5874792    
     71000   1.0098601      1.4937514      0.056953993    1.5507054    
     71500   0.94366987     1.395845       0.030324527    1.4261695    
     72000   1.0535913      1.5584372      0.033739393    1.5921766    
     72500   1.0493866      1.5522177      0.012833466    1.5650512    
     73000   1.3438298      1.9877483      0.0018076787   1.9895559    
     73500   0.98826089     1.4618026      0.016555105    1.4783577    
     74000   1.0299221      1.5234264      0              1.5234264    
     74500   0.99698094     1.474701       0.0088576827   1.4835587    
     75000   0.83752183     1.2388344      0.0085037959   1.2473382    
     75500   1.0876602      1.6088307      0.0040200295   1.6128508    
     76000   1.0144517      1.5005431      0.0068472652   1.5073904    
     76500   1.2626576      1.8676811      0.01614026     1.8838214    
     77000   1.2713596      1.8805528      0.031797834    1.9123506    
     77500   1.2125616      1.7935808      0.001867669    1.7954484    
     78000   0.96052583     1.4207778      0.005591039    1.4263688    
     78500   0.94072148     1.3914839      0.0093423789   1.4008262    
     79000   0.99078553     1.4655369      0.018809164    1.4843461    
     79500   0.95541999     1.4132254      0              1.4132254    
     80000   0.86593906     1.2808682      0.021415155    1.3022833    
     80500   0.90751269     1.3423625      0.013948274    1.3563108    
     81000   0.98548981     1.4577037      0.032653858    1.4903575    
     81500   0.81778764     1.2096442      0.01712889     1.2267731    
     82000   1.2103559      1.7903182      0.019159567    1.8094777    
     82500   1.0404861      1.5390523      0.0098549481   1.5489073    
     83000   0.93712742     1.3861676      0.031518448    1.4176861    
     83500   1.0196065      1.508168       0.0025826559   1.5107507    
     84000   0.99887201     1.4774982      0.0035146902   1.4810129    
     84500   1.1056004      1.6353673      0.035264134    1.6706314    
     85000   1.0617355      1.5704838      0.015013537    1.5854973    
     85500   0.89488622     1.3236859      8.1950692e-06  1.3236941    
     86000   1.0498256      1.552867       0.050492564    1.6033596    
     86500   1.0262357      1.5179737      0.0031034797   1.5210772    
     87000   1.1733807      1.7356257      0.016871284    1.7524969    
     87500   0.99499705     1.4717665      0.0095020433   1.4812685    
     88000   1.0904218      1.6129155      0.051362708    1.6642782    
     88500   1.2070702      1.785458       0.0061055906   1.7915636    
     89000   1.1385533      1.68411        0.012714677    1.6968247    
     89500   0.97675127     1.4447779      0.01034095     1.4551189    
     90000   1.0167125      1.5038872      0.0074985291   1.5113857    
     90500   1.0535722      1.5584089      0.0363685      1.5947774    
     91000   0.95743507     1.416206       0.084290954    1.500497     
     91500   1.1050143      1.6345003      0.0071774018   1.6416777    
     92000   0.92596806     1.3696611      0.00097675936  1.3706378    
     92500   0.97747094     1.4458424      0.0076422851   1.4534847    
     93000   1.0075677      1.4903605      0.0043368173   1.4946973    
     93500   1.0629597      1.5722945      0.010956169    1.5832507    
     94000   1.0816288      1.5999093      0.0047075209   1.6046168    
     94500   0.91614946     1.3551377      0              1.3551377    
     95000   1.0783323      1.5950332      0.03824536     1.6332786    
     95500   1.0551368      1.5607232      0              1.5607232    
     96000   1.0817014      1.6000167      0.0010531416   1.6010698    
     96500   0.97153676     1.4370648      0              1.4370648    
     97000   0.80006666     1.1834319      0.0040919571   1.1875239    
     97500   0.95788175     1.4168668      0              1.4168668    
     98000   1.1753756      1.7385764      0              1.7385764    
     98500   1.0992979      1.6260448      0.00043240566  1.6264772    
     99000   0.9807829      1.4507414      0.0009645406   1.4517059    
     99500   1.0005941      1.4800455      0.0049779631   1.4850235    
    100000   1.0199887      1.5087333      0.0067787187   1.515512     
    100016   0.9491386      1.4039342      0.0064730714   1.4104073    
Loop time of 0.510886 on 1 procs for 100000 steps with 72 atoms

Performance: 16911791.735 tau/day, 195738.330 timesteps/s, 14.093 Matom-step/s
134.5% CPU use with 1 MPI tasks x 1 OpenMP threads

MPI task timing breakdown:
Section |  min time  |  avg time  |  max time  |%varavg| %total
---------------------------------------------------------------
Pair    | 0.024838   | 0.024838   | 0.024838   |   0.0 |  4.86
Neigh   | 0.0052574  | 0.0052574  | 0.0052574  |   0.0 |  1.03
Comm    | 0.080449   | 0.080449   | 0.080449   |   0.0 | 15.75
Output  | 0.0041497  | 0.0041497  | 0.0041497  |   0.0 |  0.81
Modify  | 0.37133    | 0.37133    | 0.37133    |   0.0 | 72.68
Other   |            | 0.02486    |            |       |  4.87

Nlocal:             72 ave          72 max          72 min
Histogram: 1 0 0 0 0 0 0 0 0 0
Nghost:             98 ave          98 max          98 min
Histogram: 1 0 0 0 0 0 0 0 0 0
Neighs:             29 ave          29 max          29 min
Histogram: 1 0 0 0 0 0 0 0 0 0

Total # of neighbors = 29
Ave neighs/atom = 0.40277778
Neighbor list builds = 279
Dangerous builds = 0

write_data data.${outfile} nocoeff nofix
write_data data.1709053072 nocoeff nofix
System init for write_data ...
Generated 0 of 0 mixed pair_coeff terms from geometric mixing rule
Total wall time: 0:00:00
