LAMMPS (21 Nov 2023)
OMP_NUM_THREADS environment is not set. Defaulting to 1 thread. (src/comm.cpp:98)
  using 1 OpenMP thread(s) per MPI task
###variable outfile string L15.17
###variable L equal 15.17

units lj

newton off
atom_style      sphere
boundary        p p p
comm_modify     mode single vel yes


region      boxid block 0.0     $L      0.0       $L      0.0       $L
region      boxid block 0.0     6.3107351386036425      0.0       $L      0.0       $L
region      boxid block 0.0     6.3107351386036425      0.0       6.3107351386036425      0.0       $L
region      boxid block 0.0     6.3107351386036425      0.0       6.3107351386036425      0.0       6.3107351386036425
#create_box  1 boxid
include create_box.in
create_box 1 boxid
Created orthogonal box = (0 0 0) to (6.3107351 6.3107351 6.3107351)
  1 by 1 by 1 MPI processor grid


######
include create_np.in
create_atoms 1 random 72 2854 boxid
Created 72 atoms
  using lattice units in orthogonal box = (0 0 0) to (6.3107351 6.3107351 6.3107351)
  create_atoms CPU = 0.000 seconds
velocity    all create 1.0 87287 dist gaussian

#####
include particles.in
set type 1 diameter 1.0
Setting atom values ...
  72 settings made for diameter
set type 1 mass 26.0
Setting atom values ...
  72 settings made for mass

###
fix 1 all langevin 1.0 1.0 0.1 12345
fix 2 all nve/sphere

###
pair_style lj/cut 1.
include pots_lj_lan.in
pair_coeff 1 1 10.0 1.0 1.122462048309373
pair_modify shift yes



minimize          1.0e-4 1.0e-6 1000 1000
Generated 0 of 0 mixed pair_coeff terms from geometric mixing rule
Neighbor list info ...
  update: every = 1 steps, delay = 0 steps, check = yes
  max neighbors/atom: 2000, page size: 100000
  master list distance cutoff = 1.422462
  ghost atom cutoff = 1.422462
  binsize = 0.71123102, bins = 9 9 9
  1 neighbor lists, perpetual/occasional/extra = 1 0 0
  (1) pair lj/cut, perpetual
      attributes: half, newton off
      pair build: half/bin/newtoff
      stencil: full/bin/3d
      bin: standard
Per MPI rank memory allocation (min/avg/max) = 5.443 | 5.443 | 5.443 Mbytes
   Step          Temp          E_pair         E_mol          TotEng         Press     
         0   49.656342      577915.67      0              577989.12      662974.11    
        17   49.656342      8.1124707e-06  0              73.450014      14.029144    
Loop time of 0.000463285 on 1 procs for 17 steps with 72 atoms

380.1% CPU use with 1 MPI tasks x 1 OpenMP threads

Minimization stats:
  Stopping criterion = quadratic factors are zero
  Energy initial, next-to-last, final = 
      577915.670439826 8.11247067692792e-06 8.11247067692792e-06
  Force two-norm initial, final = 1.2122428e+09 1.1658026
  Force max component initial, final = 5.8148747e+08 0.71084714
  Final line search alpha, max atom move = 0.017265441 0.012273089
  Iterations, force evaluations = 17 50

MPI task timing breakdown:
Section |  min time  |  avg time  |  max time  |%varavg| %total
---------------------------------------------------------------
Pair    | 7.9129e-05 | 7.9129e-05 | 7.9129e-05 |   0.0 | 17.08
Neigh   | 0.00018087 | 0.00018087 | 0.00018087 |   0.0 | 39.04
Comm    | 0.00011174 | 0.00011174 | 0.00011174 |   0.0 | 24.12
Output  | 0          | 0          | 0          |   0.0 |  0.00
Modify  | 0          | 0          | 0          |   0.0 |  0.00
Other   |            | 9.155e-05  |            |       | 19.76

Nlocal:             72 ave          72 max          72 min
Histogram: 1 0 0 0 0 0 0 0 0 0
Nghost:            151 ave         151 max         151 min
Histogram: 1 0 0 0 0 0 0 0 0 0
Neighs:            153 ave         153 max         153 min
Histogram: 1 0 0 0 0 0 0 0 0 0

Total # of neighbors = 153
Ave neighs/atom = 2.125
Neighbor list builds = 5
Dangerous builds = 0

thermo_style custom step temp ke pe etotal
thermo 500
timestep 0.001
#dump    id all custom 5000 out_lan_${outfile}.lammpstrj id type radius mass xu yu zu vx vy vz fx fy fz
dump    id all custom 5000 out_lan_${outfile}.lammpstrj id type radius mass x y z
dump    id all custom 5000 out_lan_1709053501.lammpstrj id type radius mass x y z
run 100000
Generated 0 of 0 mixed pair_coeff terms from geometric mixing rule
Per MPI rank memory allocation (min/avg/max) = 4.318 | 4.318 | 4.318 Mbytes
   Step          Temp          KinEng         PotEng         TotEng    
        17   49.656342      73.450006      8.1124707e-06  73.450014    
       500   1.0114946      1.4961692      0.099006164    1.5951753    
      1000   1.1013402      1.6290658      0.059136942    1.6882027    
      1500   0.95428998     1.4115539      0.10350363     1.5150576    
      2000   1.0393339      1.5373481      0.056232084    1.5935802    
      2500   1.2132087      1.7945378      0.13663607     1.9311739    
      3000   1.0378451      1.5351459      0.039969348    1.5751152    
      3500   1.0038098      1.484802       0.023979848    1.5087819    
      4000   0.97336443     1.4397682      0.028750254    1.4685185    
      4500   1.1688894      1.7289823      0.047001584    1.7759839    
      5000   1.1982825      1.7724595      0.056654279    1.8291138    
      5500   0.94149488     1.3926278      0.080453074    1.4730809    
      6000   1.1413701      1.6882767      0.14422379     1.8325005    
      6500   1.0079808      1.4909716      0.042638455    1.53361      
      7000   0.91132978     1.3480086      0.069875114    1.4178837    
      7500   1.1042653      1.6333925      0.03570488     1.6690974    
      8000   0.78412572     1.1598526      0.053322627    1.2131753    
      8500   1.0340582      1.5295443      0.068207373    1.5977517    
      9000   1.1100583      1.6419612      0.065449299    1.7074105    
      9500   1.0470958      1.5488291      0.018142782    1.5669719    
     10000   1.0770619      1.5931541      0.086113815    1.6792679    
     10500   1.0800395      1.5975584      0.10867506     1.7062335    
     11000   1.0743664      1.589167       0.076144602    1.6653116    
     11500   1.074208       1.5889327      0.04327519     1.6322079    
     12000   0.86871052     1.2849676      0.16236373     1.4473314    
     12500   0.83092775     1.2290806      0.032783824    1.2618645    
     13000   0.82765138     1.2242343      0.069101948    1.2933363    
     13500   1.1562534      1.7102914      0.11552964     1.8258211    
     14000   1.0853895      1.6054719      0.052225311    1.6576972    
     14500   0.95627795     1.4144945      0.10207004     1.5165645    
     15000   0.924242       1.367108       0.047771375    1.4148793    
     15500   1.0763236      1.5920621      0.063616146    1.6556782    
     16000   1.0675449      1.5790768      0.067245958    1.6463228    
     16500   0.95266093     1.4091443      0.082648847    1.4917931    
     17000   0.96847534     1.4325364      0.075494994    1.5080314    
     17500   0.89475692     1.3234946      0.078426764    1.4019214    
     18000   1.0207508      1.5098606      0.068950923    1.5788115    
     18500   1.0004817      1.4798792      0.080011847    1.559891     
     19000   1.1899935      1.7601987      0.084297099    1.8444958    
     19500   0.97849515     1.4473574      0.13273446     1.5800919    
     20000   0.99766168     1.4757079      0.066953223    1.5426611    
     20500   0.93325351     1.3804375      0.072956101    1.4533936    
     21000   1.1476739      1.697601       0.077284653    1.7748856    
     21500   1.0038036      1.4847929      0.073526486    1.5583194    
     22000   1.0356429      1.5318884      0.074624726    1.6065132    
     22500   0.97132029     1.4367446      0.088739405    1.525484     
     23000   1.0754005      1.5906965      0.035236761    1.6259333    
     23500   0.88331837     1.3065751      0.0027144547   1.3092895    
     24000   1.0164342      1.5034757      0.013193291    1.5166689    
     24500   1.0766499      1.5925447      0.046957136    1.6395019    
     25000   1.0474164      1.5493034      0.053333258    1.6026367    
     25500   1.1597481      1.7154608      0.037375531    1.7528363    
     26000   1.0374588      1.5345745      0.058496321    1.5930708    
     26500   1.1457487      1.6947533      0.068556319    1.7633096    
     27000   0.89109428     1.318077       0.039483202    1.3575602    
     27500   1.0164471      1.5034947      0.042852397    1.5463471    
     28000   1.1258149      1.6652678      0.10620026     1.7714681    
     28500   0.86635344     1.2814811      0.052424406    1.3339055    
     29000   1.1371417      1.6820221      0.066594767    1.7486169    
     29500   0.97563236     1.4431229      0.039355681    1.4824786    
     30000   1.1195524      1.6560046      0.078962711    1.7349673    
     30500   0.89301922     1.3209243      0.041763349    1.3626876    
     31000   1.1501316      1.7012363      0.028232353    1.7294686    
     31500   0.95841513     1.4176557      0.068828841    1.4864846    
     32000   1.1150923      1.6494073      0.13788924     1.7872966    
     32500   0.90195995     1.3341491      0.040065657    1.3742147    
     33000   1.0308589      1.5248122      0.11878839     1.6436005    
     33500   0.88104194     1.3032079      0.064647594    1.3678555    
     34000   1.0128577      1.4981853      0.10968989     1.6078752    
     34500   0.95691373     1.4154349      0.059375232    1.4748101    
     35000   1.0978584      1.6239156      0.056801632    1.6807172    
     35500   0.93415487     1.3817707      0.078021351    1.4597921    
     36000   1.2152018      1.797486       0.088930403    1.8864164    
     36500   1.0291249      1.5222472      0.070835169    1.5930824    
     37000   1.0605703      1.5687603      0.071250028    1.6400103    
     37500   1.0157124      1.5024079      0.041614243    1.5440221    
     38000   1.0720352      1.5857187      0.058951213    1.6446699    
     38500   1.0361014      1.5325667      0.075373563    1.6079403    
     39000   0.93886164     1.3887328      0.048712798    1.4374456    
     39500   1.0142561      1.5002538      0.072159395    1.5724132    
     40000   0.95908319     1.4186439      0.054844955    1.4734888    
     40500   0.97824406     1.446986       0.0069106657   1.4538967    
     41000   0.92528087     1.3686446      0.063428216    1.4320728    
     41500   0.98647811     1.4591655      0.086938995    1.5461045    
     42000   1.0398756      1.5381494      0.081489146    1.6196385    
     42500   1.0736332      1.5880825      0.053865134    1.6419476    
     43000   0.96766018     1.4313307      0.079559761    1.5108904    
     43500   1.0410976      1.5399569      0.095950547    1.6359074    
     44000   1.119478       1.6558946      0.10651358     1.7624082    
     44500   0.86228843     1.2754683      0.081090123    1.3565584    
     45000   0.93127724     1.3775142      0.12212891     1.4996432    
     45500   0.96902179     1.4333447      0.073074578    1.5064193    
     46000   0.99424477     1.4706537      0.062979353    1.5336331    
     46500   1.0416115      1.540717       0.076362244    1.6170793    
     47000   1.0773839      1.5936303      0.11330349     1.7069338    
     47500   1.0381156      1.535546       0.058877871    1.5944238    
     48000   0.98873051     1.4624972      0.074139418    1.5366366    
     48500   0.97652392     1.4444416      0.065564728    1.5100064    
     49000   1.071791       1.5853576      0.053626599    1.6389841    
     49500   1.0731561      1.5873767      0.096681282    1.684058     
     50000   1.1759365      1.739406       0.095856185    1.8352622    
     50500   0.934014       1.3815624      0.079720651    1.461283     
     51000   0.87817688     1.29897        0.065861777    1.3648317    
     51500   0.88655645     1.3113647      0.029682583    1.3410473    
     52000   0.93192873     1.3784779      0.044737609    1.4232155    
     52500   0.93144423     1.3777612      0.096410208    1.4741715    
     53000   1.2742529      1.8848324      0.062354786    1.9471872    
     53500   1.0046782      1.4860865      0.06222527     1.5483118    
     54000   1.1715125      1.7328623      0.093210898    1.8260732    
     54500   0.97084696     1.4360445      0.091162656    1.5272071    
     55000   1.1269473      1.6669428      0.027279641    1.6942225    
     55500   1.0631432      1.572566       0.045969382    1.6185353    
     56000   0.9213588      1.3628432      0.13317715     1.4960204    
     56500   1.0388694      1.536661       0.08354358     1.6202046    
     57000   0.99503225     1.4718185      0.034971766    1.5067903    
     57500   1.1381114      1.6834564      0.037752356    1.7212087    
     58000   0.97653605     1.4444596      0.093442568    1.5379021    
     58500   1.0441384      1.5444546      0.076493823    1.6209485    
     59000   1.1299208      1.6713412      0.020130802    1.691472     
     59500   1.0453489      1.5462452      0.053884897    1.6001301    
     60000   1.3115238      1.9399623      0.063302343    2.0032646    
     60500   1.1082003      1.6392129      0.030266085    1.669479     
     61000   0.89122701     1.3182733      0.117946       1.4362193    
     61500   0.9857971      1.4581582      0.022467142    1.4806254    
     62000   0.86800367     1.2839221      0.049647122    1.3335692    
     62500   1.0532877      1.5579881      0.03597312     1.5939612    
     63000   1.0370061      1.5339049      0.03488091     1.5687858    
     63500   1.0055381      1.4873584      0.074668709    1.5620271    
     64000   1.0166239      1.5037561      0.022473437    1.5262296    
     64500   0.99887526     1.477503       0.23620329     1.7137063    
     65000   0.90484591     1.3384179      0.096414453    1.4348324    
     65500   0.95901237     1.4185391      0.02350768     1.4420468    
     66000   1.0660553      1.5768735      0.096574357    1.6734479    
     66500   1.0271767      1.5193655      0.049418082    1.5687836    
     67000   0.98109929     1.4512094      0.084729301    1.5359387    
     67500   0.93249127     1.37931        0.024899753    1.4042097    
     68000   0.9600894      1.4201322      0.080848721    1.500981     
     68500   1.0875305      1.6086389      0.048835599    1.6574745    
     69000   1.1572874      1.7118209      0.070075374    1.7818963    
     69500   1.0578465      1.5647313      0.063244077    1.6279754    
     70000   1.1441843      1.6924393      0.097658965    1.7900983    
     70500   1.0321384      1.5267047      0.10477291     1.6314776    
     71000   0.99332889     1.469299       0.13961283     1.6089118    
     71500   0.95402473     1.4111616      0.12539934     1.5365609    
     72000   1.0235174      1.5139528      0.14328787     1.6572407    
     72500   1.0422066      1.5415972      0.12791553     1.6695127    
     73000   1.3316978      1.9698029      0.021562076    1.991365     
     73500   0.9797837      1.4492634      0.15210368     1.6013671    
     74000   1.0139421      1.4997893      0.05720192     1.5569912    
     74500   1.0275491      1.5199164      0.060280399    1.5801968    
     75000   0.8642669      1.2783948      0.060970162    1.3393649    
     75500   1.0443299      1.544738       0.079810747    1.6245488    
     76000   1.0074734      1.490221       0.044505025    1.5347261    
     76500   1.204438       1.7815645      0.016017292    1.7975818    
     77000   1.2187528      1.8027385      0.15801157     1.96075      
     77500   1.2396158      1.8335984      0.056034948    1.8896334    
     78000   0.96056837     1.4208407      0.13808136     1.5589221    
     78500   0.93796011     1.3873993      0.058235178    1.4456345    
     79000   1.024589       1.5155378      0.0074849663   1.5230228    
     79500   0.95130015     1.4071315      0.050468185    1.4575997    
     80000   0.89772192     1.3278803      0.041458915    1.3693393    
     80500   0.93969111     1.3899598      0.019270314    1.4092301    
     81000   0.97624103     1.4440232      0.050449609    1.4944728    
     81500   0.83469719     1.2346563      0.054794518    1.2894508    
     82000   1.1896053      1.7596245      0.069935103    1.8295596    
     82500   1.0793378      1.5965204      0.055317191    1.6518376    
     83000   0.95076155     1.4063348      0.089462697    1.4957975    
     83500   0.98035249     1.4501047      0.11133216     1.5614369    
     84000   1.0479878      1.5501486      0.070586946    1.6207356    
     84500   1.1712035      1.7324051      0.055809973    1.7882151    
     85000   1.0859749      1.6063379      0.02163684     1.6279747    
     85500   0.91200167     1.3490025      0.067867266    1.4168697    
     86000   1.0205142      1.5095105      0.11740212     1.6269127    
     86500   1.0561005      1.5621487      0.044218988    1.6063676    
     87000   1.1895369      1.7595233      0.060188776    1.8197121    
     87500   0.99777508     1.4758756      0.021117282    1.4969929    
     88000   1.0550877      1.5606506      0.068080049    1.6287307    
     88500   1.1702315      1.7309675      0.038028915    1.7689964    
     89000   1.1675265      1.7269663      0.017556762    1.744523     
     89500   0.97163421     1.4372089      0.047073963    1.4842829    
     90000   1.016671       1.5038259      0.10262414     1.6064501    
     90500   0.96553255     1.4281836      0.032678794    1.4608624    
     91000   0.97941812     1.4487226      0.056840239    1.5055629    
     91500   1.1044578      1.6336772      0.020320106    1.6539973    
     92000   0.90951146     1.345319       0.078424148    1.4237432    
     92500   0.99801531     1.476231       0.06848731     1.5447183    
     93000   1.0253787      1.5167059      0.056203111    1.572909     
     93500   1.0620429      1.5709384      0.068429534    1.6393679    
     94000   1.0598778      1.5677359      0.15312375     1.7208596    
     94500   0.92092908     1.3622076      0.031793781    1.3940014    
     95000   1.0381037      1.5355284      0.057359356    1.5928877    
     95500   1.0373449      1.534406       0.090032597    1.6244386    
     96000   1.1083163      1.6393845      0.10132606     1.7407106    
     96500   0.99814287     1.4764197      0.042984277    1.5194039    
     97000   0.79769388     1.1799222      0.076773123    1.2566953    
     97500   0.8944768      1.3230803      0.0777954      1.4008757    
     98000   1.1548864      1.7082695      0.075379012    1.7836485    
     98500   1.096289       1.6215942      0.068229103    1.6898233    
     99000   0.9702194      1.4351162      0.1133473      1.5484635    
     99500   0.95499274     1.4125934      0.016103246    1.4286967    
    100000   1.0428204      1.5425052      0.047972819    1.590478     
    100017   0.97171651     1.4373307      0.048805775    1.4861364    
Loop time of 0.614634 on 1 procs for 100000 steps with 72 atoms

Performance: 14057155.833 tau/day, 162698.563 timesteps/s, 11.714 Matom-step/s
143.1% CPU use with 1 MPI tasks x 1 OpenMP threads

MPI task timing breakdown:
Section |  min time  |  avg time  |  max time  |%varavg| %total
---------------------------------------------------------------
Pair    | 0.053416   | 0.053416   | 0.053416   |   0.0 |  8.69
Neigh   | 0.0081259  | 0.0081259  | 0.0081259  |   0.0 |  1.32
Comm    | 0.12061    | 0.12061    | 0.12061    |   0.0 | 19.62
Output  | 0.0035722  | 0.0035722  | 0.0035722  |   0.0 |  0.58
Modify  | 0.40292    | 0.40292    | 0.40292    |   0.0 | 65.55
Other   |            | 0.02598    |            |       |  4.23

Nlocal:             72 ave          72 max          72 min
Histogram: 1 0 0 0 0 0 0 0 0 0
Nghost:            171 ave         171 max         171 min
Histogram: 1 0 0 0 0 0 0 0 0 0
Neighs:            115 ave         115 max         115 min
Histogram: 1 0 0 0 0 0 0 0 0 0

Total # of neighbors = 115
Ave neighs/atom = 1.5972222
Neighbor list builds = 280
Dangerous builds = 0

write_data data.${outfile} nocoeff nofix
write_data data.1709053501 nocoeff nofix
System init for write_data ...
Generated 0 of 0 mixed pair_coeff terms from geometric mixing rule
Total wall time: 0:00:00
