LAMMPS (21 Nov 2023)
OMP_NUM_THREADS environment is not set. Defaulting to 1 thread. (src/comm.cpp:98)
  using 1 OpenMP thread(s) per MPI task
###variable outfile string L15.17
###variable L equal 15.17

units lj

newton off
atom_style      sphere
boundary        p p p
comm_modify     mode single vel yes


region      boxid block 0.0     $L      0.0       $L      0.0       $L
region      boxid block 0.0     6.092947785379555      0.0       $L      0.0       $L
region      boxid block 0.0     6.092947785379555      0.0       6.092947785379555      0.0       $L
region      boxid block 0.0     6.092947785379555      0.0       6.092947785379555      0.0       6.092947785379555
#create_box  1 boxid
include create_box.in
create_box 1 boxid
Created orthogonal box = (0 0 0) to (6.0929478 6.0929478 6.0929478)
  1 by 1 by 1 MPI processor grid


######
include create_np.in
create_atoms 1 random 108 5279 boxid
Created 108 atoms
  using lattice units in orthogonal box = (0 0 0) to (6.0929478 6.0929478 6.0929478)
  create_atoms CPU = 0.001 seconds
velocity    all create 1.0 87287 dist gaussian

#####
include particles.in
set type 1 diameter 1.0
Setting atom values ...
  108 settings made for diameter
set type 1 mass 26.0
Setting atom values ...
  108 settings made for mass

###
fix 1 all langevin 1.0 1.0 0.1 12345
fix 2 all nve/sphere

###
pair_style lj/cut 1.
include pots_lj_lan.in
pair_coeff 1 1 10.0 1.0 1.122462048309373
pair_modify shift yes



minimize          1.0e-4 1.0e-6 1000 1000
Generated 0 of 0 mixed pair_coeff terms from geometric mixing rule
Neighbor list info ...
  update: every = 1 steps, delay = 0 steps, check = yes
  max neighbors/atom: 2000, page size: 100000
  master list distance cutoff = 1.422462
  ghost atom cutoff = 1.422462
  binsize = 0.71123102, bins = 9 9 9
  1 neighbor lists, perpetual/occasional/extra = 1 0 0
  (1) pair lj/cut, perpetual
      attributes: half, newton off
      pair build: half/bin/newtoff
      stencil: full/bin/3d
      bin: standard
Per MPI rank memory allocation (min/avg/max) = 5.444 | 5.444 | 5.444 Mbytes
   Step          Temp          E_pair         E_mol          TotEng         Press     
         0   49.656342      14282677       0              14282751       27280814     
        28   49.656342      3.0236361e-08  0              73.794842      23.489748    
Loop time of 0.00135722 on 1 procs for 28 steps with 108 atoms

405.1% CPU use with 1 MPI tasks x 1 OpenMP threads

Minimization stats:
  Stopping criterion = quadratic factors are zero
  Energy initial, next-to-last, final = 
      14282677.1608611 3.02363612748314e-08 3.02363612748314e-08
  Force two-norm initial, final = 1.1136383e+11 0.08645171
  Force max component initial, final = 4.9046754e+10 0.043653499
  Final line search alpha, max atom move = 0.125 0.0054566874
  Iterations, force evaluations = 28 86

MPI task timing breakdown:
Section |  min time  |  avg time  |  max time  |%varavg| %total
---------------------------------------------------------------
Pair    | 0.00031012 | 0.00031012 | 0.00031012 |   0.0 | 22.85
Neigh   | 0.00058006 | 0.00058006 | 0.00058006 |   0.0 | 42.74
Comm    | 0.00027302 | 0.00027302 | 0.00027302 |   0.0 | 20.12
Output  | 0          | 0          | 0          |   0.0 |  0.00
Modify  | 0          | 0          | 0          |   0.0 |  0.00
Other   |            | 0.000194   |            |       | 14.30

Nlocal:            108 ave         108 max         108 min
Histogram: 1 0 0 0 0 0 0 0 0 0
Nghost:            220 ave         220 max         220 min
Histogram: 1 0 0 0 0 0 0 0 0 0
Neighs:            414 ave         414 max         414 min
Histogram: 1 0 0 0 0 0 0 0 0 0

Total # of neighbors = 414
Ave neighs/atom = 3.8333333
Neighbor list builds = 9
Dangerous builds = 1

thermo_style custom step temp ke pe etotal
thermo 500
timestep 0.001
#dump    id all custom 5000 out_lan_${outfile}.lammpstrj id type radius mass xu yu zu vx vy vz fx fy fz
dump    id all custom 5000 out_lan_${outfile}.lammpstrj id type radius mass x y z
dump    id all custom 5000 out_lan_1708804043.lammpstrj id type radius mass x y z
run 100000
Generated 0 of 0 mixed pair_coeff terms from geometric mixing rule
Per MPI rank memory allocation (min/avg/max) = 4.319 | 4.319 | 4.319 Mbytes
   Step          Temp          KinEng         PotEng         TotEng    
        28   49.656342      73.794842      3.0236361e-08  73.794842    
       500   1.0672933      1.5861164      0.31362406     1.8997405    
      1000   1.0860468      1.6139863      0.23378709     1.8477733    
      1500   0.91991576     1.367097       0.27811756     1.6452146    
      2000   1.051373       1.5624572      0.1865644      1.7490216    
      2500   1.1178497      1.6612488      0.26352479     1.9247736    
      3000   0.86778462     1.2896244      0.18755356     1.4771779    
      3500   1.0203848      1.5164052      0.17795273     1.6943579    
      4000   0.97712438     1.4521154      0.20182003     1.6539354    
      4500   0.98851567     1.4690441      0.24304351     1.7120876    
      5000   1.0732354      1.5949471      0.17836967     1.7733167    
      5500   1.0904143      1.6204767      0.16639561     1.7868723    
      6000   0.99357009     1.4765556      0.2576342      1.7341898    
      6500   0.99673594     1.4812604      0.21282382     1.6940842    
      7000   1.0693063      1.5891079      0.23567487     1.8247828    
      7500   0.98183992     1.4591232      0.1847149      1.6438381    
      8000   0.97442265     1.4481003      0.18613994     1.6342403    
      8500   1.1140502      1.6556023      0.12013787     1.7757402    
      9000   0.99441544     1.4778118      0.2007271      1.6785389    
      9500   0.92061135     1.3681308      0.20506054     1.5731913    
     10000   1.0481997      1.5577413      0.18843138     1.7461727    
     10500   1.0183723      1.5134144      0.1116481      1.6250625    
     11000   0.9765174      1.4512134      0.25091106     1.7021244    
     11500   0.92304435     1.3717465      0.18062098     1.5523674    
     12000   0.96395946     1.4325509      0.13363634     1.5661872    
     12500   0.84168078     1.2508312      0.15031107     1.4011422    
     13000   1.0030216      1.4906016      0.16894154     1.6595431    
     13500   1.1450533      1.7016764      0.2612844      1.9629608    
     14000   0.99009255     1.4713875      0.19929947     1.670687     
     14500   0.98236733     1.459907       0.12295701     1.582864     
     15000   1.0420877      1.5486581      0.22335305     1.7720112    
     15500   0.92429633     1.373607       0.15225886     1.5258659    
     16000   0.94950434     1.4110689      0.18649899     1.5975679    
     16500   1.0760606      1.5991457      0.16462583     1.7637715    
     17000   1.025241       1.523622       0.070589321    1.5942113    
     17500   0.93545802     1.3901946      0.1843052      1.5744998    
     18000   1.0623322      1.5787437      0.257439       1.8361827    
     18500   0.96641596     1.4362015      0.24503584     1.6812373    
     19000   0.95488896     1.4190711      0.15557252     1.5746436    
     19500   1.0615203      1.5775372      0.16422936     1.7417665    
     20000   1.0423184      1.549001       0.12314637     1.6721474    
     20500   1.0069827      1.4964882      0.24671756     1.7432057    
     21000   1.0065096      1.4957851      0.26565999     1.7614451    
     21500   0.92851218     1.3798723      0.19590756     1.5757798    
     22000   0.98266208     1.460345       0.22699589     1.6873409    
     22500   0.93118096     1.3838384      0.20868858     1.592527     
     23000   1.1075191      1.6458964      0.12628881     1.7721853    
     23500   1.0112953      1.5028972      0.13955322     1.6424505    
     24000   0.94913092     1.410514       0.17610589     1.5866199    
     24500   0.99813767     1.4833435      0.17328968     1.6566332    
     25000   1.0150571      1.5084876      0.18683514     1.6953228    
     25500   0.99321538     1.4760284      0.10238465     1.5784131    
     26000   0.91078795     1.3535321      0.18788155     1.5414136    
     26500   0.99843322     1.4837827      0.19360889     1.6773916    
     27000   1.005955       1.4949608      0.18052836     1.6754892    
     27500   1.0436381      1.5509622      0.07235649     1.6233187    
     28000   0.98894956     1.4696889      0.22206797     1.6917569    
     28500   1.0096925      1.5005153      0.22910021     1.7296155    
     29000   0.98692056     1.4666736      0.21579269     1.6824663    
     29500   1.0483725      1.557998       0.22608422     1.7840822    
     30000   1.1157356      1.6581071      0.19076285     1.84887      
     30500   0.99916333     1.4848677      0.16098514     1.6458529    
     31000   1.0221927      1.5190919      0.20293792     1.7220299    
     31500   0.95826964     1.4240952      0.28514832     1.7092435    
     32000   1.0189184      1.5142259      0.2613145      1.7755404    
     32500   0.97721228     1.452246       0.15419466     1.6064407    
     33000   1.1089529      1.6480273      0.19423503     1.8422623    
     33500   1.0412321      1.5473866      0.22944504     1.7768317    
     34000   0.93405563     1.3881105      0.16219694     1.5503074    
     34500   1.1564629      1.7186323      0.29908308     2.0177154    
     35000   0.9986266      1.4840701      0.26716409     1.7512342    
     35500   0.99880956     1.484342       0.20382656     1.6881685    
     36000   1.0096967      1.5005216      0.12362435     1.6241459    
     36500   0.97415041     1.4476958      0.20917257     1.6568683    
     37000   1.0638006      1.5809259      0.12560417     1.7065301    
     37500   0.92472099     1.3742381      0.12508415     1.4993223    
     38000   1.0439081      1.5513634      0.22904427     1.7804077    
     38500   1.0428551      1.5497986      0.1981255      1.747924     
     39000   1.0495261      1.5597123      0.16202413     1.7217365    
     39500   1.0652673      1.5831056      0.25023077     1.8333364    
     40000   1.0933819      1.6248869      0.20376345     1.8286504    
     40500   0.92373665     1.3727753      0.21410768     1.586883     
     41000   1.063217       1.5800587      0.21913527     1.7991939    
     41500   1.0031441      1.4907836      0.28472515     1.7755087    
     42000   1.1167024      1.6595438      0.16354222     1.823086     
     42500   0.97124711     1.4433811      0.16095756     1.6043387    
     43000   0.87125998     1.2947891      0.19633051     1.4911196    
     43500   1.0463885      1.5550496      0.1701631      1.7252127    
     44000   1.1549205      1.7163401      0.20776126     1.9241014    
     44500   0.94839691     1.4094232      0.21990866     1.6293318    
     45000   1.0298048      1.5304044      0.17117329     1.7015777    
     45500   1.047802       1.5571502      0.14996943     1.7071196    
     46000   0.91094109     1.3537597      0.1199282      1.4736879    
     46500   1.0257068      1.5243143      0.29301468     1.817329     
     47000   1.0394278      1.5447052      0.20521376     1.749919     
     47500   0.97064484     1.4424861      0.25482142     1.6973075    
     48000   1.0324297      1.5343053      0.18647894     1.7207842    
     48500   1.0575021      1.5715656      0.19007339     1.761639     
     49000   1.0290023      1.5292117      0.17124751     1.7004592    
     49500   0.95138727     1.4138672      0.10827895     1.5221461    
     50000   0.96439648     1.4332003      0.098116789    1.5313171    
     50500   0.90435731     1.3439754      0.2283281      1.5723035    
     51000   0.89122053     1.3244527      0.20459102     1.5290438    
     51500   1.1290654      1.6779166      0.26740037     1.9453169    
     52000   0.90302189     1.3419909      0.10256377     1.4445546    
     52500   0.94436931     1.4034377      0.15926496     1.5627027    
     53000   0.95275706     1.4159029      0.10556003     1.5214629    
     53500   1.0413044      1.547494       0.13461018     1.6821042    
     54000   1.0085751      1.4988546      0.19423611     1.6930908    
     54500   1.0331558      1.5353844      0.093896796    1.6292812    
     55000   0.9183583      1.3647825      0.15208079     1.5168633    
     55500   0.89168337     1.3251406      0.10524351     1.4303841    
     56000   0.90224043     1.3408295      0.16976472     1.5105942    
     56500   0.92754215     1.3784307      0.16053189     1.5389626    
     57000   0.98839545     1.4688655      0.24293858     1.711804     
     57500   1.0766575      1.6000326      0.17283275     1.7728654    
     58000   1.0316695      1.5331755      0.11245477     1.6456302    
     58500   1.0530322      1.5649228      0.16983835     1.7347611    
     59000   1.0206565      1.5168089      0.12580014     1.642609     
     59500   0.99494401     1.4785973      0.14756279     1.6261601    
     60000   0.88771849     1.3192483      0.16321134     1.4824597    
     60500   0.85737835     1.2741595      0.15258561     1.4267451    
     61000   1.0563994      1.5699269      0.1285496      1.6984765    
     61500   0.95054224     1.4126114      0.14615538     1.5587668    
     62000   1.0738354      1.5958387      0.13884364     1.7346823    
     62500   0.91401155     1.3583227      0.15318753     1.5115102    
     63000   1.1228736      1.6687149      0.17681206     1.8455269    
     63500   1.1235899      1.6697794      0.16952024     1.8392996    
     64000   1.0802916      1.6054333      0.19241188     1.7978452    
     64500   0.92668415     1.3771556      0.19608968     1.5732453    
     65000   0.96121298     1.4284693      0.23812934     1.6665986    
     65500   1.0648963      1.5825543      0.23825225     1.8208065    
     66000   1.051079       1.5620202      0.18342765     1.7454478    
     66500   1.0856034      1.6133273      0.12166653     1.7349939    
     67000   1.0276219      1.5271603      0.22463068     1.751791     
     67500   1.0974211      1.6308897      0.16836071     1.7992504    
     68000   0.91939941     1.3663297      0.1441739      1.5105036    
     68500   0.96373254     1.4322136      0.19796652     1.6301802    
     69000   0.90239584     1.3410605      0.15514962     1.4962101    
     69500   1.0163062      1.5103439      0.14675724     1.6571012    
     70000   1.2185607      1.8109167      0.1580141      1.9689307    
     70500   0.96124827     1.4285217      0.1519347      1.5804564    
     71000   1.0208755      1.5171345      0.16541487     1.6825493    
     71500   0.99797572     1.4831028      0.11700653     1.6001093    
     72000   1.0248543      1.5230474      0.056782855    1.5798303    
     72500   0.999305       1.4850783      0.1644122      1.6494905    
     73000   0.97212889     1.4446915      0.2385176      1.6832091    
     73500   0.9699318      1.4414264      0.13929716     1.5807236    
     74000   0.96594244     1.4354978      0.21050835     1.6460061    
     74500   0.90740793     1.348509       0.11235612     1.4608651    
     75000   0.94929357     1.4107557      0.10779725     1.518553     
     75500   0.98086387     1.4576727      0.11338941     1.5710621    
     76000   1.0376033      1.5419937      0.12895474     1.6709485    
     76500   1.1889308      1.7668833      0.21957168     1.9864549    
     77000   1.158217       1.7212392      0.15776869     1.8790079    
     77500   0.91546349     1.3604805      0.10353455     1.464015     
     78000   0.97940561     1.4555056      0.20011783     1.6556234    
     78500   1.1578707      1.7207246      0.18710873     1.9078333    
     79000   0.90763243     1.3488426      0.20687378     1.5557164    
     79500   1.2372636      1.8387113      0.20424859     2.0429598    
     80000   0.93395922     1.3879672      0.23151086     1.619478     
     80500   0.87105935     1.294491       0.16046099     1.454952     
     81000   1.0706512      1.5911066      0.14495773     1.7360644    
     81500   1.0043141      1.4925223      0.14854084     1.6410632    
     82000   1.0347406      1.5377395      0.17258964     1.7103291    
     82500   0.94255112     1.4007357      0.26266159     1.6633973    
     83000   0.9394597      1.3961415      0.13138415     1.5275257    
     83500   0.9597173      1.4262465      0.19327152     1.6195181    
     84000   1.0703201      1.5906146      0.20308558     1.7937002    
     84500   1.056545       1.5701432      0.1958381      1.7659813    
     85000   0.98195992     1.4593015      0.26811222     1.7274138    
     85500   0.96329187     1.4315587      0.13785466     1.5694134    
     86000   1.0083521      1.4985232      0.22532868     1.7238519    
     86500   1.0831174      1.6096328      0.19228163     1.8019144    
     87000   1.0008471      1.48737        0.23214327     1.7195133    
     87500   1.157593       1.7203118      0.15659403     1.8769059    
     88000   1.0324689      1.5343635      0.14757705     1.6819405    
     88500   0.98106539     1.4579722      0.22533964     1.6833118    
     89000   0.85242846     1.2668034      0.13520245     1.4020059    
     89500   1.0268075      1.52595        0.15677069     1.6827207    
     90000   0.97893913     1.4548123      0.23418915     1.6890015    
     90500   0.90290226     1.3418131      0.16397082     1.5057839    
     91000   0.91673971     1.3623771      0.14832981     1.5107069    
     91500   0.9356777      1.390521       0.18535097     1.575872     
     92000   1.0146179      1.507835       0.10915152     1.6169865    
     92500   1.0269476      1.5261582      0.24570694     1.7718652    
     93000   0.9195066      1.366489       0.23097242     1.5974614    
     93500   1.0249188      1.5231432      0.17481723     1.6979604    
     94000   1.0503625      1.5609553      0.12304333     1.6839987    
     94500   1.0122361      1.5042953      0.23015341     1.7344487    
     95000   1.0171669      1.5116231      0.18722781     1.6988509    
     95500   0.91214294     1.3555458      0.19857275     1.5541185    
     96000   1.0070086      1.4965266      0.17119741     1.6677241    
     96500   0.79944683     1.1880668      0.30899499     1.4970618    
     97000   1.0279367      1.5276282      0.18628272     1.7139109    
     97500   0.99122341     1.4730681      0.25679504     1.7298632    
     98000   0.85664279     1.2730664      0.1970051      1.4700715    
     98500   0.96437572     1.4331695      0.18936019     1.6225297    
     99000   1.175157       1.7464138      0.24005066     1.9864645    
     99500   1.0278952      1.5275665      0.27599649     1.803563     
    100000   0.84666693     1.2582411      0.1417858      1.4000269    
    100028   0.90909227     1.3510121      0.14139108     1.4924032    
Loop time of 0.969703 on 1 procs for 100000 steps with 108 atoms

Performance: 8909946.208 tau/day, 103124.377 timesteps/s, 11.137 Matom-step/s
109.0% CPU use with 1 MPI tasks x 1 OpenMP threads

MPI task timing breakdown:
Section |  min time  |  avg time  |  max time  |%varavg| %total
---------------------------------------------------------------
Pair    | 0.13719    | 0.13719    | 0.13719    |   0.0 | 14.15
Neigh   | 0.016216   | 0.016216   | 0.016216   |   0.0 |  1.67
Comm    | 0.19226    | 0.19226    | 0.19226    |   0.0 | 19.83
Output  | 0.012002   | 0.012002   | 0.012002   |   0.0 |  1.24
Modify  | 0.57641    | 0.57641    | 0.57641    |   0.0 | 59.44
Other   |            | 0.03563    |            |       |  3.67

Nlocal:            108 ave         108 max         108 min
Histogram: 1 0 0 0 0 0 0 0 0 0
Nghost:            240 ave         240 max         240 min
Histogram: 1 0 0 0 0 0 0 0 0 0
Neighs:            377 ave         377 max         377 min
Histogram: 1 0 0 0 0 0 0 0 0 0

Total # of neighbors = 377
Ave neighs/atom = 3.4907407
Neighbor list builds = 290
Dangerous builds = 0

write_data data.${outfile} nocoeff nofix
write_data data.1708804043 nocoeff nofix
System init for write_data ...
Generated 0 of 0 mixed pair_coeff terms from geometric mixing rule
Total wall time: 0:00:00
