LAMMPS (21 Nov 2023)
OMP_NUM_THREADS environment is not set. Defaulting to 1 thread. (src/comm.cpp:98)
  using 1 OpenMP thread(s) per MPI task
###variable outfile string L15.17
###variable L equal 15.17

units lj

newton off
atom_style      sphere
boundary        p p p
comm_modify     mode single vel yes


region      boxid block 0.0     $L      0.0       $L      0.0       $L
region      boxid block 0.0     6.0929      0.0       $L      0.0       $L
region      boxid block 0.0     6.0929      0.0       6.0929      0.0       $L
region      boxid block 0.0     6.0929      0.0       6.0929      0.0       6.0929
#create_box  1 boxid
include create_box.in
create_box 1 boxid
Created orthogonal box = (0 0 0) to (6.0929 6.0929 6.0929)
  1 by 1 by 1 MPI processor grid


######
include create_np.in
create_atoms 1 random 108 7318 boxid
Created 108 atoms
  using lattice units in orthogonal box = (0 0 0) to (6.0929 6.0929 6.0929)
  create_atoms CPU = 0.000 seconds
velocity    all create 1.0 87287 dist gaussian

#####
include particles.in
set type 1 diameter 1.0
Setting atom values ...
  108 settings made for diameter
set type 1 mass 26.0
Setting atom values ...
  108 settings made for mass

###
fix 1 all langevin 1.0 1.0 0.1 12345
fix 2 all nve/sphere

###
pair_style lj/cut 1.
include pots_lj_lan.in
pair_coeff 1 1 10.0 1.0 1.122462048309373
pair_modify shift yes



minimize          1.0e-4 1.0e-6 1000 1000
Generated 0 of 0 mixed pair_coeff terms from geometric mixing rule
Neighbor list info ...
  update: every = 1 steps, delay = 0 steps, check = yes
  max neighbors/atom: 2000, page size: 100000
  master list distance cutoff = 1.422462
  ghost atom cutoff = 1.422462
  binsize = 0.71123102, bins = 9 9 9
  1 neighbor lists, perpetual/occasional/extra = 1 0 0
  (1) pair lj/cut, perpetual
      attributes: half, newton off
      pair build: half/bin/newtoff
      stencil: full/bin/3d
      bin: standard
Per MPI rank memory allocation (min/avg/max) = 5.456 | 5.456 | 5.456 Mbytes
   Step          Temp          E_pair         E_mol          TotEng         Press     
         0   49.656342      44872093       0              44872166       85707247     
        31   49.656342      1.1885783e-08  0              73.794842      23.490244    
Loop time of 0.0013953 on 1 procs for 31 steps with 108 atoms

0.0% CPU use with 1 MPI tasks x 1 OpenMP threads

Minimization stats:
  Stopping criterion = quadratic factors are zero
  Energy initial, next-to-last, final = 
          44872092.646 1.18857825803786e-08 1.18857825803786e-08
  Force two-norm initial, final = 3.503807e+11 0.054191584
  Force max component initial, final = 2.3237602e+11 0.030000517
  Final line search alpha, max atom move = 0.0625 0.0018750323
  Iterations, force evaluations = 31 88

MPI task timing breakdown:
Section |  min time  |  avg time  |  max time  |%varavg| %total
---------------------------------------------------------------
Pair    | 0.00030554 | 0.00030554 | 0.00030554 |   0.0 | 21.90
Neigh   | 0.00063501 | 0.00063501 | 0.00063501 |   0.0 | 45.51
Comm    | 0.00027606 | 0.00027606 | 0.00027606 |   0.0 | 19.78
Output  | 0          | 0          | 0          |   0.0 |  0.00
Modify  | 0          | 0          | 0          |   0.0 |  0.00
Other   |            | 0.0001787  |            |       | 12.81

Nlocal:            108 ave         108 max         108 min
Histogram: 1 0 0 0 0 0 0 0 0 0
Nghost:            250 ave         250 max         250 min
Histogram: 1 0 0 0 0 0 0 0 0 0
Neighs:            425 ave         425 max         425 min
Histogram: 1 0 0 0 0 0 0 0 0 0

Total # of neighbors = 425
Ave neighs/atom = 3.9351852
Neighbor list builds = 11
Dangerous builds = 0

thermo_style custom step temp ke pe etotal
thermo 500
timestep 0.001
#dump    id all custom 5000 out_lan_${outfile}.lammpstrj id type radius mass xu yu zu vx vy vz fx fy fz
dump    id all custom 5000 out_lan_${outfile}.lammpstrj id type radius mass x y z
dump    id all custom 5000 out_lan_1708718862.lammpstrj id type radius mass x y z
run 100000
Generated 0 of 0 mixed pair_coeff terms from geometric mixing rule
Per MPI rank memory allocation (min/avg/max) = 4.331 | 4.331 | 4.331 Mbytes
   Step          Temp          KinEng         PotEng         TotEng    
        31   49.656342      73.794842      1.1885783e-08  73.794842    
       500   1.1040124      1.6406851      0.41409585     2.054781     
      1000   1.0937927      1.6254975      0.26106491     1.8865624    
      1500   0.89847279     1.3352304      0.29759264     1.632823     
      2000   0.96790393     1.4384128      0.17960553     1.6180183    
      2500   1.1561551      1.7181749      0.15190275     1.8700777    
      3000   0.85139659     1.2652699      0.18167459     1.4469445    
      3500   1.0381448      1.5427985      0.18920384     1.7320024    
      4000   1.0207624      1.5169663      0.078405684    1.595372     
      4500   0.89670902     1.3326092      0.14841668     1.4810259    
      5000   0.97998682     1.4563693      0.21498457     1.6713539    
      5500   1.0601209      1.5754575      0.20136166     1.7768191    
      6000   1.0154917      1.5091335      0.24099396     1.7501275    
      6500   1.0379271      1.542475       0.16726354     1.7097385    
      7000   1.1326445      1.6832355      0.2623859      1.9456214    
      7500   0.96393332     1.432512       0.16932319     1.6018352    
      8000   1.0140901      1.5070505      0.20179194     1.7088425    
      8500   1.100176       1.6349837      0.16923974     1.8042234    
      9000   1.0122243      1.5042778      0.16971011     1.6739879    
      9500   0.97964907     1.4558674      0.11730997     1.5731773    
     10000   1.0778382      1.6017873      0.15908342     1.7608707    
     10500   1.0096533      1.500457       0.1866235      1.6870805    
     11000   0.94059108     1.3978229      0.24563759     1.6434605    
     11500   1.0050148      1.4935636      0.1633626      1.6569262    
     12000   0.98111981     1.4580531      0.10830671     1.5663598    
     12500   0.90320283     1.3422598      0.13073511     1.4729949    
     13000   1.0187698      1.5140052      0.20166807     1.7156732    
     13500   1.0969585      1.6302022      0.26469282     1.894895     
     14000   1.0900358      1.6199144      0.14887342     1.7687878    
     14500   1.0066092      1.4959331      0.13451775     1.6304509    
     15000   1.1285739      1.6771862      0.19404687     1.8712331    
     15500   0.93571833     1.3905814      0.17876866     1.5693501    
     16000   1.0161546      1.5101186      0.18850257     1.6986211    
     16500   1.102576       1.6385504      0.15329384     1.7918442    
     17000   1.0355059      1.5388768      0.11111219     1.649989     
     17500   0.92601319     1.3761585      0.1668673      1.5430258    
     18000   1.0073037      1.4969652      0.24262615     1.7395914    
     18500   1.0276274      1.5271684      0.18022032     1.7073888    
     19000   1.001307       1.4880534      0.15767737     1.6457308    
     19500   1.0437716      1.5511605      0.13966644     1.690827     
     20000   0.9984246      1.4837699      0.13594486     1.6197148    
     20500   1.0727411      1.5942125      0.1444274      1.7386399    
     21000   1.0095191      1.5002575      0.12150601     1.6217635    
     21500   0.90583972     1.3461785      0.089615057    1.4357935    
     22000   0.93215081     1.3852797      0.15114317     1.5364228    
     22500   0.86605062     1.2870475      0.18181967     1.4688671    
     23000   1.1253048      1.6723279      0.16268699     1.8350149    
     23500   1.0417247      1.5481186      0.17571494     1.7238336    
     24000   0.97972558     1.4559811      0.12603762     1.5820187    
     24500   1.0106033      1.5018688      0.069762544    1.5716314    
     25000   1.0165175      1.5106579      0.12659379     1.6372517    
     25500   0.91659332     1.3621595      0.11575553     1.477915     
     26000   0.94458687     1.403761       0.21414324     1.6179043    
     26500   1.0774806      1.6012559      0.062307871    1.6635637    
     27000   0.95287889     1.4160839      0.17696336     1.5930473    
     27500   1.0143968      1.5075063      0.15135923     1.6588655    
     28000   1.0110628      1.5025517      0.15593126     1.6584829    
     28500   0.93937413     1.3960143      0.29236166     1.688376     
     29000   1.0131947      1.5057199      0.24618631     1.7519063    
     29500   1.0997962      1.6344193      0.092467775    1.7268871    
     30000   1.0357092      1.5391789      0.12833709     1.667516     
     30500   1.0155334      1.5091955      0.22568108     1.7348766    
     31000   1.0423549      1.5490553      0.23481329     1.7838685    
     31500   1.020786       1.5170014      0.13665331     1.6536547    
     32000   1.0276643      1.5272234      0.19552179     1.7227452    
     32500   0.93748846     1.393212       0.1867287      1.5799407    
     33000   1.0721304      1.5933049      0.10405965     1.6973645    
     33500   1.0453016      1.5534343      0.18859664     1.742031     
     34000   0.99292357     1.4755947      0.15317277     1.6287675    
     34500   1.0930625      1.6244123      0.13140438     1.7558167    
     35000   1.0476449      1.5569168      0.16636741     1.7232842    
     35500   1.0396558      1.545044       0.06731102     1.612355     
     36000   0.95353494     1.4170589      0.12688374     1.5439426    
     36500   0.98179711     1.4590596      0.19380553     1.6528651    
     37000   1.0410826      1.5471645      0.14859261     1.6957571    
     37500   0.95767143     1.4232062      0.19917335     1.6223795    
     38000   1.0272594      1.5266216      0.18609273     1.7127143    
     38500   1.0034923      1.4913011      0.14635135     1.6376524    
     39000   1.0261231      1.524933       0.1252299      1.6501629    
     39500   1.0881741      1.6171476      0.16603228     1.7831799    
     40000   1.0360497      1.5396849      0.26296725     1.8026522    
     40500   0.95204672     1.4148472      0.14198268     1.5568299    
     41000   1.067181       1.5859496      0.13941872     1.7253683    
     41500   1.0091715      1.4997409      0.13116062     1.6309016    
     42000   1.0656878      1.5837305      0.15140012     1.7351306    
     42500   0.9763183      1.4509175      0.14571975     1.5966372    
     43000   0.9173742      1.36332        0.15093769     1.5142577    
     43500   1.0400675      1.5456559      0.17065342     1.7163093    
     44000   1.0795848      1.604383       0.10586231     1.7102453    
     44500   0.99721658     1.4819746      0.10343519     1.5854098    
     45000   1.0638547      1.5810062      0.18963319     1.7706394    
     45500   0.98240302     1.45996        0.18442407     1.6443841    
     46000   0.95986506     1.4264661      0.12360387     1.55007      
     46500   1.0865998      1.6148081      0.21298728     1.8277954    
     47000   1.1163186      1.6589735      0.17420261     1.8331761    
     47500   1.0115182      1.5032284      0.09682596     1.6000544    
     48000   0.98963487     1.4707074      0.1757801      1.6464875    
     48500   1.0673071      1.5861369      0.1795494      1.7656863    
     49000   0.99844018     1.483793       0.15192354     1.6357166    
     49500   0.92172598     1.3697872      0.14930975     1.519097     
     50000   0.98811997     1.4684561      0.11523546     1.5836915    
     50500   0.98506938     1.4639226      0.11526041     1.579183     
     51000   0.92348857     1.3724066      0.15028983     1.5226965    
     51500   1.1314158      1.6814096      0.20674496     1.8881545    
     52000   0.93968369     1.3964744      0.11502274     1.5114971    
     52500   0.92398534     1.3731449      0.14366867     1.5168136    
     53000   0.88860014     1.3205585      0.24780155     1.5683601    
     53500   0.97933759     1.4554045      0.15800822     1.6134127    
     54000   1.0624674      1.5789446      0.16836602     1.7473107    
     54500   1.0365856      1.5404814      0.19007516     1.7305565    
     55000   0.91237987     1.3558979      0.1000067      1.4559046    
     55500   0.92925985     1.3809834      0.13796824     1.5189516    
     56000   0.93921599     1.3957793      0.23540112     1.6311804    
     56500   0.90817413     1.3496477      0.1783936      1.5280413    
     57000   0.95998832     1.4266493      0.19314816     1.6197975    
     57500   1.0454683      1.5536821      0.18658882     1.7402709    
     58000   0.9880888      1.4684097      0.22479873     1.6932085    
     58500   1.1086201      1.6475326      0.10826809     1.7558007    
     59000   0.97873465     1.4545084      0.14960119     1.6041096    
     59500   0.95218262     1.4150492      0.13496171     1.5500109    
     60000   0.85966597     1.2775592      0.18494326     1.4625024    
     60500   0.80018925     1.1891701      0.12206497     1.3112351    
     61000   0.93336298     1.3870811      0.12785721     1.5149383    
     61500   0.94440877     1.4034964      0.20475269     1.6082491    
     62000   1.0813187      1.6069598      0.18360512     1.7905649    
     62500   0.93977513     1.3966103      0.15922313     1.5558334    
     63000   1.1100066      1.6495931      0.12484896     1.774442     
     63500   1.1458757      1.7028987      0.22439469     1.9272933    
     64000   1.1150985      1.6571602      0.18983051     1.8469907    
     64500   0.93419204     1.3883132      0.18870159     1.5770148    
     65000   0.95173672     1.4143865      0.12747018     1.5418567    
     65500   1.1136365      1.6549877      0.14788469     1.8028723    
     66000   1.0743921      1.596666       0.18715013     1.7838161    
     66500   1.0842947      1.6113824      0.1507465      1.7621289    
     67000   0.97658328     1.4513113      0.1785479      1.6298592    
     67500   1.1226699      1.6684122      0.14720122     1.8156135    
     68000   0.9095773      1.3517329      0.2383127      1.5900456    
     68500   0.87219232     1.2961747      0.22205366     1.5182284    
     69000   0.92380665     1.3728793      0.13947233     1.5123517    
     69500   1.0194117      1.5149591      0.25477574     1.7697348    
     70000   1.2394628      1.8419794      0.096657041    1.9386365    
     70500   0.92714832     1.3778454      0.1363394      1.5141848    
     71000   1.0446916      1.5525278      0.18195812     1.7344859    
     71500   0.99780156     1.482844       0.14393186     1.6267758    
     72000   0.96534613     1.4346116      0.17710318     1.6117148    
     72500   0.96573538     1.4351901      0.13736947     1.5725595    
     73000   0.94636617     1.4064053      0.13029897     1.5367043    
     73500   0.97883153     1.4546524      0.20717313     1.6618255    
     74000   0.94852576     1.4096147      0.14136169     1.5509764    
     74500   0.88268599     1.3117695      0.13758491     1.4493544    
     75000   0.89728921     1.3334715      0.090316061    1.4237875    
     75500   0.92783803     1.3788704      0.16266397     1.5415344    
     76000   1.0368502      1.5408745      0.20868746     1.749562     
     76500   1.1940422      1.7744794      0.10576563     1.880245     
     77000   1.1808287      1.7548427      0.2048243      1.959667     
     77500   0.87751584     1.304086       0.15173914     1.4558252    
     78000   0.99241171     1.4748341      0.16143272     1.6362668    
     78500   1.1652564      1.7317005      0.14333403     1.8750346    
     79000   0.84994427     1.2631116      0.10373584     1.3668475    
     79500   1.1846509      1.7605228      0.088801151    1.849324     
     80000   0.88232314     1.3112302      0.17142827     1.4826585    
     80500   0.95290443     1.4161219      0.22003398     1.6361558    
     81000   1.0930464      1.6243884      0.1693592      1.7937476    
     81500   1.0185778      1.5137198      0.16318458     1.6769044    
     82000   1.0310348      1.5322323      0.092558268    1.6247906    
     82500   0.99963526     1.4855691      0.18075286     1.6663219    
     83000   0.91376052     1.3579497      0.18700953     1.5449592    
     83500   0.91760287     1.3636598      0.19790201     1.5615618    
     84000   1.0486082      1.5583484      0.15067926     1.7090276    
     84500   1.0691101      1.5888164      0.1820578      1.7708742    
     85000   0.9906567      1.4722259      0.091847827    1.5640738    
     85500   0.96582789     1.4353276      0.11927389     1.5546014    
     86000   1.0648032      1.5824158      0.18889841     1.7713143    
     86500   1.0357548      1.5392467      0.13536628     1.674613     
     87000   1.0341657      1.5368851      0.14933009     1.6862152    
     87500   1.1331375      1.6839682      0.12444227     1.8084105    
     88000   1.0903681      1.6204082      0.15979153     1.7801997    
     88500   1.0315677      1.5330242      0.17325379     1.706278     
     89000   0.86985898     1.2927071      0.13199592     1.424703     
     89500   0.97574145     1.4500602      0.13807682     1.588137     
     90000   1.0046343      1.4929982      0.18794115     1.6809393    
     90500   0.87367772     1.2983822      0.21931722     1.5176994    
     91000   0.95223719     1.4151303      0.26423309     1.6793634    
     91500   0.98094025     1.4577862      0.2342953      1.6920815    
     92000   1.0013532      1.4881221      0.15190811     1.6400302    
     92500   1.0710004      1.5916255      0.1582656      1.7498911    
     93000   0.93415443     1.3882573      0.12860741     1.5168647    
     93500   1.0356349      1.5390685      0.18897851     1.7280471    
     94000   0.97665483     1.4514176      0.14674271     1.5981603    
     94500   1.0397212      1.5451413      0.16254795     1.7076892    
     95000   0.99345948     1.4763912      0.12950078     1.6058919    
     95500   0.95207496     1.4148892      0.12051542     1.5354046    
     96000   0.98668032     1.4663166      0.15005387     1.6163705    
     96500   0.79363842     1.1794349      0.11985829     1.2992932    
     97000   1.0162167      1.510211       0.11819504     1.628406     
     97500   1.0145712      1.5077656      0.11738549     1.6251511    
     98000   0.84385932     1.2540687      0.1650965      1.4191652    
     98500   1.0424278      1.5491636      0.11221126     1.6613749    
     99000   1.1735734      1.7440605      0.10683657     1.8508971    
     99500   1.0250331      1.523313       0.15091931     1.6742324    
    100000   0.81304357     1.2082731      0.15563541     1.3639085    
    100031   0.83771581     1.2449388      0.18185721     1.426796     
Loop time of 0.876988 on 1 procs for 100000 steps with 108 atoms

Performance: 9851904.754 tau/day, 114026.675 timesteps/s, 12.315 Matom-step/s
115.9% CPU use with 1 MPI tasks x 1 OpenMP threads

MPI task timing breakdown:
Section |  min time  |  avg time  |  max time  |%varavg| %total
---------------------------------------------------------------
Pair    | 0.12048    | 0.12048    | 0.12048    |   0.0 | 13.74
Neigh   | 0.01448    | 0.01448    | 0.01448    |   0.0 |  1.65
Comm    | 0.16899    | 0.16899    | 0.16899    |   0.0 | 19.27
Output  | 0.0048307  | 0.0048307  | 0.0048307  |   0.0 |  0.55
Modify  | 0.5384     | 0.5384     | 0.5384     |   0.0 | 61.39
Other   |            | 0.02981    |            |       |  3.40

Nlocal:            108 ave         108 max         108 min
Histogram: 1 0 0 0 0 0 0 0 0 0
Nghost:            231 ave         231 max         231 min
Histogram: 1 0 0 0 0 0 0 0 0 0
Neighs:            364 ave         364 max         364 min
Histogram: 1 0 0 0 0 0 0 0 0 0

Total # of neighbors = 364
Ave neighs/atom = 3.3703704
Neighbor list builds = 289
Dangerous builds = 0

write_data data.${outfile} nocoeff nofix
write_data data.1708718862 nocoeff nofix
System init for write_data ...
Generated 0 of 0 mixed pair_coeff terms from geometric mixing rule
Total wall time: 0:00:00
