LAMMPS (3 Mar 2020)
###variable outfile string L15.17
###variable L equal 15.17

units lj

newton off
atom_style      sphere
boundary        p p p
comm_modify     mode single vel yes


region      boxid block 0.0     $L      0.0       $L      0.0       $L
region      boxid block 0.0     5.21      0.0       $L      0.0       $L
region      boxid block 0.0     5.21      0.0       5.21      0.0       $L
region      boxid block 0.0     5.21      0.0       5.21      0.0       5.21
#create_box  1 boxid
include create_box.in
create_box 1 boxid
Created orthogonal box = (0 0 0) to (5.21 5.21 5.21)
  1 by 1 by 1 MPI processor grid


######
include create_np.in
create_atoms 1 random 54 1722 boxid
Created 54 atoms
  create_atoms CPU = 0.00121207 secs
velocity    all create 1.0 87287 dist gaussian

#####
include particles.in
set type 1 diameter 1.0
  54 settings made for diameter
set type 1 mass 26.0
  54 settings made for mass

###
fix 1 all langevin 1.0 1.0 0.1 12345
fix 2 all nve/sphere

###
pair_style lj/cut 1.
include pots_lj_lan.in
pair_coeff 1 1 10.0 1.0 1.122462048309373
pair_modify shift yes



minimize          1.0e-4 1.0e-6 1000 1000
WARNING: Using 'neigh_modify every 1 delay 0 check yes' setting during minimization (src/min.cpp:190)
Neighbor list info ...
  update every 1 steps, delay 0 steps, check yes
  max neighbors/atom: 2000, page size: 100000
  master list distance cutoff = 1.42246
  ghost atom cutoff = 1.42246
  binsize = 0.711231, bins = 8 8 8
  1 neighbor lists, perpetual/occasional/extra = 1 0 0
  (1) pair lj/cut, perpetual
      attributes: half, newton off
      pair build: half/bin/newtoff
      stencil: half/bin/3d/newtoff
      bin: standard
Per MPI rank memory allocation (min/avg/max) = 5.441 | 5.441 | 5.441 Mbytes
Step Temp E_pair E_mol TotEng Press 
       0    49.656342 2.0129574e+08            0 2.0129582e+08 3.0746337e+08 
      29    49.656342 4.7346489e-13            0    73.105171    18.609617 
Loop time of 0.00301025 on 1 procs for 29 steps with 54 atoms

100.1% CPU use with 1 MPI tasks x no OpenMP threads

Minimization stats:
  Stopping criterion = quadratic factors are zero
  Energy initial, next-to-last, final = 
         201295743.322  4.73464888694e-13  4.73464888694e-13
  Force two-norm initial, final = 8.90318e+11 0.000241753
  Force max component initial, final = 5.88576e+11 0.00013817
  Final line search alpha, max atom move = 1 0.00013817
  Iterations, force evaluations = 29 95

MPI task timing breakdown:
Section |  min time  |  avg time  |  max time  |%varavg| %total
---------------------------------------------------------------
Pair    | 0.00063566 | 0.00063566 | 0.00063566 |   0.0 | 21.12
Neigh   | 0.0013542  | 0.0013542  | 0.0013542  |   0.0 | 44.99
Comm    | 0.00052958 | 0.00052958 | 0.00052958 |   0.0 | 17.59
Output  | 0          | 0          | 0          |   0.0 |  0.00
Modify  | 0          | 0          | 0          |   0.0 |  0.00
Other   |            | 0.0004908  |            |       | 16.31

Nlocal:    54 ave 54 max 54 min
Histogram: 1 0 0 0 0 0 0 0 0 0
Nghost:    147 ave 147 max 147 min
Histogram: 1 0 0 0 0 0 0 0 0 0
Neighs:    151 ave 151 max 151 min
Histogram: 1 0 0 0 0 0 0 0 0 0

Total # of neighbors = 151
Ave neighs/atom = 2.7963
Neighbor list builds = 9
Dangerous builds = 0

thermo_style custom step temp ke pe etotal
thermo 500
timestep 0.001
#dump    id all custom 5000 out_lan_${outfile}.lammpstrj id type radius mass xu yu zu vx vy vz fx fy fz
dump    id all custom 5000 out_lan_${outfile}.lammpstrj id type radius mass x y z
dump    id all custom 5000 out_lan_1676480497.lammpstrj id type radius mass x y z
run 100000
Per MPI rank memory allocation (min/avg/max) = 4.316 | 4.316 | 4.316 Mbytes
Step Temp KinEng PotEng TotEng 
      29    49.656342    73.105171 4.7346489e-13    73.105171 
     500   0.91090949    1.3410612   0.14685518    1.4879164 
    1000     1.034823    1.5234894   0.32062744    1.8441169 
    1500    1.0113016    1.4888606   0.22932181    1.7181824 
    2000    1.0568393    1.5559023   0.22248263     1.778385 
    2500    1.1381704    1.6756397   0.16203871    1.8376784 
    3000     1.000147    1.4724386   0.21301421    1.6854528 
    3500    1.1257543    1.6573605   0.19514833    1.8525089 
    4000    1.0227369     1.505696   0.10956939    1.6152654 
    4500    1.0438017    1.5367081   0.12454526    1.6612534 
    5000     1.046692    1.5409633   0.20427333    1.7452366 
    5500    1.0113253    1.4888955  0.070179515     1.559075 
    6000   0.88685987    1.3056548   0.21083342    1.5164882 
    6500    1.0296969    1.5159426   0.19969482    1.7156374 
    7000      1.08878    1.6029262   0.14384913    1.7467753 
    7500   0.89052944    1.3110572   0.14565593    1.4567132 
    8000    1.1626812     1.711725  0.082758817    1.7944839 
    8500   0.99617943    1.4665975  0.077784702    1.5443822 
    9000   0.99139423    1.4595526  0.069708786    1.5292614 
    9500   0.93929479    1.3828507   0.16603645    1.5488871 
   10000    1.1551198     1.700593  0.053067876    1.7536609 
   10500    1.0828453    1.5941889   0.13567647    1.7298654 
   11000   0.96354163    1.4185474   0.15883634    1.5773837 
   11500   0.81417873     1.198652  0.096183617    1.2948356 
   12000     1.092525    1.6084396   0.13156833    1.7400079 
   12500    1.1791869    1.7360252  0.076074792       1.8121 
   13000   0.96709936    1.4237852   0.13920559    1.5629908 
   13500   0.88744854    1.3065215  0.037687207    1.3442087 
   14000   0.97151983    1.4302931    0.1145823    1.5448754 
   14500   0.93370354    1.3746191   0.30651491     1.681134 
   15000    1.1606967    1.7088035  0.064899793    1.7737032 
   15500   0.89463976    1.3171085    0.1627594    1.4798679 
   16000    1.0935965    1.6100171   0.10873042    1.7187475 
   16500   0.66365924   0.97705388   0.17790822    1.1549621 
   17000    1.2208631    1.7973817  0.070868166    1.8682499 
   17500   0.98955531    1.4568453   0.11878605    1.5756314 
   18000   0.92447808    1.3610372   0.21632643    1.5773636 
   18500   0.94484104     1.391016   0.18839358    1.5794096 
   19000    1.0832419    1.5947728   0.16701404    1.7617868 
   19500    1.0491122    1.5445264  0.092865882    1.6373922 
   20000   0.99949634    1.4714807  0.092208441    1.5636892 
   20500   0.95286199    1.4028246   0.13909364    1.5419182 
   21000    1.0632316    1.5653132   0.10897385     1.674287 
   21500    1.0790868    1.5886555   0.12055269    1.7092082 
   22000    1.0909047    1.6060541   0.13449385    1.7405479 
   22500    1.0228009    1.5057902  0.089565832     1.595356 
   23000   0.96432745    1.4197043   0.11258973     1.532294 
   23500    1.0053505    1.4800993  0.048533741     1.528633 
   24000   0.89905024    1.3236017   0.19126381    1.5148656 
   24500     1.104558    1.6261549   0.17645686    1.8026117 
   25000   0.95292968    1.4029243   0.16944342    1.5723677 
   25500   0.86909215    1.2794968  0.074652766    1.3541495 
   26000    1.0172724     1.497651   0.10838622    1.6060373 
   26500    1.0458251     1.539687   0.16778487    1.7074719 
   27000   0.99190701    1.4603075   0.18436289    1.6446704 
   27500   0.94742858    1.3948254   0.10049688    1.4953223 
   28000    1.2491273    1.8389929    0.1910234    2.0300163 
   28500    1.1499009    1.6929097  0.082666241    1.7755759 
   29000   0.99441593    1.4640012    0.1097837    1.5737849 
   29500   0.99654307    1.4671329   0.13335205    1.6004849 
   30000    1.0954689    1.6127736   0.11123359    1.7240072 
   30500    1.1392669     1.677254   0.17759338    1.8548474 
   31000    1.0751896     1.582918  0.061333717    1.6442517 
   31500    1.0770533    1.5856617  0.036949375    1.6226111 
   32000    1.0093639     1.486008  0.045755286    1.5317633 
   32500   0.92075299     1.355553   0.12664148    1.4821945 
   33000    1.1639786    1.7136351  0.065587375    1.7792225 
   33500   0.97514819    1.4356348   0.16647418     1.602109 
   34000   0.97683267    1.4381148  0.096755406    1.5348702 
   34500    1.0182475    1.4990866  0.083520483     1.582607 
   35000    1.0343809    1.5228385  0.072169678    1.5950082 
   35500   0.88446213    1.3021248   0.21752881    1.5196536 
   36000    1.0718828    1.5780497   0.10119171    1.6792414 
   36500   0.98926044    1.4564112  0.092241697    1.5486529 
   37000    1.1415421    1.6806036  0.056416651    1.7370203 
   37500    0.8533964    1.2563891   0.10168677    1.3580759 
   38000   0.98785434    1.4543411   0.14202943    1.5963705 
   38500    1.0626352    1.5644351   0.18306425    1.7474994 
   39000    1.1909365    1.7533232   0.10663965    1.8599628 
   39500   0.94730404    1.3946421  0.065682784    1.4603248 
   40000    1.0906146    1.6056271  0.077599333    1.6832264 
   40500    1.1539336    1.6988467   0.07396014    1.7728068 
   41000     1.183218    1.7419599  0.057603023    1.7995629 
   41500   0.93512742    1.3767154  0.031861356    1.4085767 
   42000   0.88564647    1.3038684   0.06249226    1.3663607 
   42500    1.1680036    1.7195609   0.10386297    1.8234238 
   43000   0.85463431    1.2582116   0.11603842      1.37425 
   43500   0.92726883    1.3651458  0.090613099    1.4557589 
   44000    1.2405656    1.8263883  0.059415192    1.8858035 
   44500   0.78738071    1.1591994  0.053114013    1.2123134 
   45000   0.97195548    1.4309345  0.089015726    1.5199502 
   45500    1.0197426    1.5012877  0.085678013    1.5869657 
   46000   0.91137568    1.3417475   0.13162595    1.4733735 
   46500    1.1774804    1.7335129   0.11878404    1.8522969 
   47000   0.97061193    1.4289564    0.1855809    1.6145373 
   47500    1.0234294    1.5067155   0.15957143    1.6662869 
   48000    1.0133225    1.4918359   0.21052279    1.7023587 
   48500   0.99133698    1.4594683   0.14883252    1.6083008 
   49000     1.276939     1.879938   0.22735761    2.1072956 
   49500   0.90571706    1.3334168  0.095513526    1.4289303 
   50000   0.99746495    1.4684901  0.098354471    1.5668445 
   50500   0.89034709    1.3107888   0.10779368    1.4185825 
   51000    1.0586867    1.5586221  0.066187182    1.6248093 
   51500    1.1201749    1.6491464  0.035409371    1.6845558 
   52000    1.0929908    1.6091253  0.081906223    1.6910315 
   52500   0.89961677    1.3244358   0.17435675    1.4987925 
   53000   0.99616722    1.4665795   0.12212184    1.5887014 
   53500   0.84219047    1.2398915  0.077044925    1.3169364 
   54000    1.0279625    1.5133892  0.096159989    1.6095492 
   54500    1.1270202    1.6592242   0.15165083     1.810875 
   55000   0.94181372    1.3865591  0.088890836    1.4754499 
   55500   0.96066505    1.4143124  0.095928043    1.5102405 
   56000   0.94617115    1.3929742   0.16722148    1.5601957 
   56500    1.0691936    1.5740906   0.10972474    1.6838153 
   57000   0.90001214    1.3250179   0.11088302    1.4359009 
   57500    1.0350237    1.5237849   0.11239082    1.6361757 
   58000   0.97877745    1.4409779   0.24599546    1.6869734 
   58500    1.2058226    1.7752389  0.083204049    1.8584429 
   59000    1.2210538    1.7976625  0.056532983    1.8541955 
   59500    1.0432767    1.5359351  0.096063236    1.6319984 
   60000   0.95025047    1.3989799  0.086488393    1.4854683 
   60500   0.91094439    1.3411126  0.091508636    1.4326212 
   61000    1.0400825    1.5312326   0.12895998    1.6601925 
   61500    0.8742914    1.2871512  0.069820489    1.3569717 
   62000   0.95812108    1.4105671   0.17479039    1.5853575 
   62500    1.0867299    1.5999079  0.096828075    1.6967359 
   63000   0.98231155    1.4461809  0.066989761    1.5131706 
   63500    1.0599931    1.5605454   0.13291711    1.6934625 
   64000    1.0748344    1.5823951   0.13063759    1.7130327 
   64500   0.99769246     1.468825   0.11197641    1.5808014 
   65000    1.1057275    1.6278766   0.18712841     1.815005 
   65500   0.94847402    1.3963645   0.25467313    1.6510377 
   66000    1.0083628    1.4845341  0.086396057    1.5709301 
   66500   0.96795731    1.4250483   0.10382865    1.5288769 
   67000    1.1210674    1.6504603   0.20961188    1.8600722 
   67500    1.0052092    1.4798914   0.18104124    1.6609326 
   68000    1.1160336    1.6430494   0.35035432    1.9934037 
   68500    1.1272949    1.6596286  0.067403501    1.7270321 
   69000     1.031562    1.5186884   0.23997301    1.7586614 
   69500   0.76748631    1.1299104    0.0967975    1.2267079 
   70000    1.0691038    1.5739584   0.11690207    1.6908605 
   70500    1.1189104    1.6472848   0.10647024    1.7537551 
   71000   0.98503562    1.4501913   0.10266825    1.5528596 
   71500    1.1577583    1.7044774   0.11595326    1.8204307 
   72000   0.87318774    1.2855264   0.13518811    1.4207145 
   72500    1.2102961    1.7818248   0.11666837    1.8984932 
   73000   0.94007415     1.383998   0.12691198      1.51091 
   73500    1.0969038    1.6148862   0.13646692    1.7513531 
   74000    1.0483839    1.5434541   0.14237141    1.6858255 
   74500    1.1737605    1.7280363  0.095616578    1.8236529 
   75000    1.0135674    1.4921964   0.11572691    1.6079233 
   75500    1.0934077    1.6097391  0.072974067    1.6827132 
   76000    1.3030743     1.918415  0.051232483    1.9696475 
   76500      0.86289    1.2703658   0.14857214     1.418938 
   77000     1.012334    1.4903806   0.13334145    1.6237221 
   77500    1.1417186    1.6808635  0.051510046    1.7323735 
   78000    1.0367087    1.5262656  0.059493913    1.5857595 
   78500     1.024852    1.5088099  0.070689824    1.5794998 
   79000     1.129877      1.66343  0.086132344    1.7495623 
   79500   0.85508464    1.2588746  0.099685668    1.3585603 
   80000    1.1276208    1.6601084    0.1293124    1.7894208 
   80500   0.96141844    1.4154216   0.22343411    1.6388557 
   81000   0.82640123    1.2166463  0.091011275    1.3076575 
   81500    1.2369182    1.8210185  0.037236077    1.8582546 
   82000   0.85303177    1.2558523   0.10524139    1.3610937 
   82500    1.1622302    1.7110611  0.095785346    1.8068464 
   83000    1.0165104    1.4965292  0.065695306    1.5622245 
   83500    0.9684769    1.4258132    0.1196805    1.5454937 
   84000    1.0398773    1.5309305  0.073294559    1.6042251 
   84500      0.92151    1.3566675    0.1366829    1.4933504 
   85000    1.0052314    1.4799241  0.066600534    1.5465246 
   85500   0.95440704    1.4050993   0.11111636    1.5162156 
   86000    1.0394242    1.5302634  0.066654017    1.5969174 
   86500   0.77680008    1.1436223  0.046826592    1.1904489 
   87000    1.0069843    1.4825047   0.17693614    1.6594408 
   87500    1.1137202    1.6396437   0.17224957    1.8118933 
   88000    1.1780671    1.7343765   0.14954679    1.8839233 
   88500    1.1824763    1.7408679  0.097292048    1.8381599 
   89000   0.99801958    1.4693066  0.039627017    1.5089336 
   89500   0.97211149    1.4311641  0.068852663    1.5000168 
   90000    0.7715616    1.1359101   0.20347276    1.3393829 
   90500   0.97800023    1.4398337   0.11977598    1.5596096 
   91000   0.96280583    1.4174641   0.13028728    1.5477514 
   91500    1.0235182    1.5068463  0.044039214    1.5508855 
   92000    1.0179124    1.4985932   0.10519078     1.603784 
   92500   0.95859281    1.4112616  0.072222562    1.4834842 
   93000   0.78930774    1.1620364   0.11555768    1.2775941 
   93500    1.0630473    1.5650419  0.055115353    1.6201573 
   94000    1.0661533    1.5696146   0.19284415    1.7624588 
   94500   0.90891221    1.3381208    0.1751609    1.5132816 
   95000     1.074234    1.5815112   0.12513633    1.7066476 
   95500    1.0810846    1.5915967   0.28747304    1.8790698 
   96000    1.0742706     1.581565   0.10503509    1.6866001 
   96500    1.0055273    1.4803597  0.068653963    1.5490136 
   97000    0.9573774    1.4094723  0.080531032    1.4900033 
   97500    1.0140407    1.4928933   0.24230705    1.7352003 
   98000   0.92752417    1.3655217   0.21591911    1.5814408 
   98500   0.92487757    1.3616253  0.087433959    1.4490593 
   99000   0.87645116    1.2903309  0.093872837    1.3842037 
   99500    0.8615862    1.2684464  0.088651893    1.3570982 
  100000    1.0620535    1.5635788  0.093786645    1.6573654 
  100029    1.0541917    1.5520045  0.080947285    1.6329518 
Loop time of 0.577527 on 1 procs for 100000 steps with 54 atoms

Performance: 14960352.210 tau/day, 173152.225 timesteps/s
99.0% CPU use with 1 MPI tasks x no OpenMP threads

MPI task timing breakdown:
Section |  min time  |  avg time  |  max time  |%varavg| %total
---------------------------------------------------------------
Pair    | 0.083719   | 0.083719   | 0.083719   |   0.0 | 14.50
Neigh   | 0.010961   | 0.010961   | 0.010961   |   0.0 |  1.90
Comm    | 0.11219    | 0.11219    | 0.11219    |   0.0 | 19.43
Output  | 0.0091098  | 0.0091098  | 0.0091098  |   0.0 |  1.58
Modify  | 0.328      | 0.328      | 0.328      |   0.0 | 56.79
Other   |            | 0.03355    |            |       |  5.81

Nlocal:    54 ave 54 max 54 min
Histogram: 1 0 0 0 0 0 0 0 0 0
Nghost:    147 ave 147 max 147 min
Histogram: 1 0 0 0 0 0 0 0 0 0
Neighs:    139 ave 139 max 139 min
Histogram: 1 0 0 0 0 0 0 0 0 0

Total # of neighbors = 139
Ave neighs/atom = 2.57407
Neighbor list builds = 264
Dangerous builds = 0

write_data data.${outfile} nocoeff nofix
write_data data.1676480497 nocoeff nofix
Total wall time: 0:00:00
