LAMMPS (21 Nov 2023)
OMP_NUM_THREADS environment is not set. Defaulting to 1 thread. (src/comm.cpp:98)
  using 1 OpenMP thread(s) per MPI task
###variable outfile string L15.17
###variable L equal 15.17

units lj

newton off
atom_style      sphere
boundary        p p p
comm_modify     mode single vel yes


region      boxid block 0.0     $L      0.0       $L      0.0       $L
region      boxid block 0.0     4.757962609394053      0.0       $L      0.0       $L
region      boxid block 0.0     4.757962609394053      0.0       4.757962609394053      0.0       $L
region      boxid block 0.0     4.757962609394053      0.0       4.757962609394053      0.0       4.757962609394053
#create_box  1 boxid
include create_box.in
create_box 1 boxid
Created orthogonal box = (0 0 0) to (4.7579626 4.7579626 4.7579626)
  1 by 1 by 1 MPI processor grid


######
include create_np.in
create_atoms 1 random 72 9735 boxid
Created 72 atoms
  using lattice units in orthogonal box = (0 0 0) to (4.7579626 4.7579626 4.7579626)
  create_atoms CPU = 0.001 seconds
velocity    all create 1.0 87287 dist gaussian

#####
include particles.in
set type 1 diameter 1.0
Setting atom values ...
  72 settings made for diameter
set type 1 mass 26.0
Setting atom values ...
  72 settings made for mass

###
fix 1 all langevin 1.0 1.0 0.1 12345
fix 2 all nve/sphere

###
pair_style lj/cut 1.
include pots_lj_lan.in
pair_coeff 1 1 10.0 1.0 1.122462048309373
pair_modify shift yes



minimize          1.0e-4 1.0e-6 1000 1000
Generated 0 of 0 mixed pair_coeff terms from geometric mixing rule
Neighbor list info ...
  update: every = 1 steps, delay = 0 steps, check = yes
  max neighbors/atom: 2000, page size: 100000
  master list distance cutoff = 1.422462
  ghost atom cutoff = 1.422462
  binsize = 0.71123102, bins = 7 7 7
  1 neighbor lists, perpetual/occasional/extra = 1 0 0
  (1) pair lj/cut, perpetual
      attributes: half, newton off
      pair build: half/bin/newtoff
      stencil: full/bin/3d
      bin: standard
Per MPI rank memory allocation (min/avg/max) = 5.44 | 5.44 | 5.44 Mbytes
   Step          Temp          E_pair         E_mol          TotEng         Press     
         0   49.656342      5022784.5      0              5022858        13435499     
        46   49.656342      4.7137927e-08  0              73.450006      32.732067    
Loop time of 0.00239622 on 1 procs for 46 steps with 72 atoms

582.8% CPU use with 1 MPI tasks x 1 OpenMP threads

Minimization stats:
  Stopping criterion = quadratic factors are zero
  Energy initial, next-to-last, final = 
      5022784.53859147 4.71379269198182e-08 4.71379269198182e-08
  Force two-norm initial, final = 1.4833034e+10 0.088137878
  Force max component initial, final = 9.6725813e+09 0.051874079
  Final line search alpha, max atom move = 0.0078125 0.00040526625
  Iterations, force evaluations = 46 193

MPI task timing breakdown:
Section |  min time  |  avg time  |  max time  |%varavg| %total
---------------------------------------------------------------
Pair    | 0.00068574 | 0.00068574 | 0.00068574 |   0.0 | 28.62
Neigh   | 0.00084242 | 0.00084242 | 0.00084242 |   0.0 | 35.16
Comm    | 0.0006146  | 0.0006146  | 0.0006146  |   0.0 | 25.65
Output  | 0          | 0          | 0          |   0.0 |  0.00
Modify  | 0          | 0          | 0          |   0.0 |  0.00
Other   |            | 0.0002535  |            |       | 10.58

Nlocal:             72 ave          72 max          72 min
Histogram: 1 0 0 0 0 0 0 0 0 0
Nghost:            230 ave         230 max         230 min
Histogram: 1 0 0 0 0 0 0 0 0 0
Neighs:            414 ave         414 max         414 min
Histogram: 1 0 0 0 0 0 0 0 0 0

Total # of neighbors = 414
Ave neighs/atom = 5.75
Neighbor list builds = 15
Dangerous builds = 0

thermo_style custom step temp ke pe etotal
thermo 500
timestep 0.001
#dump    id all custom 5000 out_lan_${outfile}.lammpstrj id type radius mass xu yu zu vx vy vz fx fy fz
dump    id all custom 5000 out_lan_${outfile}.lammpstrj id type radius mass x y z
dump    id all custom 5000 out_lan_1709054421.lammpstrj id type radius mass x y z
run 100000
Generated 0 of 0 mixed pair_coeff terms from geometric mixing rule
Per MPI rank memory allocation (min/avg/max) = 4.315 | 4.315 | 4.315 Mbytes
   Step          Temp          KinEng         PotEng         TotEng    
        46   49.656342      73.450006      4.7137927e-08  73.450006    
       500   1.13696        1.6817534      0.75661625     2.4383697    
      1000   0.95717974     1.4158284      0.76804574     2.1838741    
      1500   0.99886677     1.4774904      0.45366251     1.9311529    
      2000   1.0451673      1.5459767      0.65209398     2.1980707    
      2500   1.1798813      1.7452411      0.63380166     2.3790427    
      3000   1.0043146      1.4855487      0.48820399     1.9737527    
      3500   1.077406       1.5936631      0.50704887     2.100712     
      4000   1.1365887      1.6812042      0.47235336     2.1535575    
      4500   1.0821616      1.6006973      0.50979577     2.1104931    
      5000   1.1638258      1.7214923      0.75444289     2.4759352    
      5500   1.0308242      1.5247608      0.44679393     1.9715547    
      6000   1.1033534      1.6320436      0.53030704     2.1623507    
      6500   0.95809919     1.4171884      0.30602233     1.7232107    
      7000   0.99276203     1.4684605      0.50658018     1.9750407    
      7500   1.1719523      1.7335127      0.44546619     2.1789789    
      8000   0.96796722     1.4317848      0.40262843     1.8344133    
      8500   1.1672841      1.7266077      0.43007381     2.1566815    
      9000   1.1130106      1.6463282      0.53373904     2.1800673    
      9500   1.0456822      1.5467382      0.40946481     1.956203     
     10000   0.97949024     1.4488293      0.29497375     1.7438031    
     10500   0.93911885     1.3891133      0.47958554     1.8686988    
     11000   1.0039345      1.4849864      0.48080436     1.9657908    
     11500   0.99068226     1.4653842      0.59944435     2.0648285    
     12000   0.82123497     1.2147434      0.55951761     1.774261     
     12500   0.92754519     1.3719939      0.69811794     2.0701119    
     13000   0.88840105     1.3140932      0.55211027     1.8662035    
     13500   1.1434187      1.6913068      0.44282214     2.134129     
     14000   1.1058499      1.6357363      0.5695269      2.2052632    
     14500   1.0976793      1.6236507      0.42717476     2.0508254    
     15000   0.91647101     1.3556134      0.40085316     1.7564665    
     15500   1.00922        1.4928046      0.43984608     1.9326507    
     16000   0.92446268     1.3674344      0.6137244      1.9811588    
     16500   0.91599334     1.3549068      0.40670868     1.7616155    
     17000   1.1282089      1.668809       0.70149382     2.3703028    
     17500   0.94992401     1.4050959      0.47486325     1.8799592    
     18000   1.0232928      1.5136207      0.55178332     2.065404     
     18500   0.87598852     1.295733       0.55012519     1.8458582    
     19000   1.0160167      1.502858       0.4707829      1.9736409    
     19500   1.0895987      1.6116981      0.31752751     1.9292256    
     20000   1.1158542      1.6505343      0.44849487     2.0990292    
     20500   0.90660199     1.3410154      0.25603669     1.5970521    
     21000   1.046652       1.5481728      0.5022585      2.0504313    
     21500   0.99750443     1.4754753      0.31797932     1.7934546    
     22000   0.90606771     1.3402252      0.5180922      1.8583174    
     22500   1.0219344      1.5116113      0.40548169     1.917093     
     23000   1.0419486      1.5412157      0.58149265     2.1227083    
     23500   0.8652522      1.2798522      0.35737897     1.6372312    
     24000   0.81881378     1.2111621      0.41354612     1.6247082    
     24500   0.91843437     1.3585175      0.40260158     1.7611191    
     25000   1.000763       1.4802952      0.3467808      1.827076     
     25500   1.0193618      1.507806       0.3433945      1.8512005    
     26000   0.80233206     1.1867828      0.49373283     1.6805157    
     26500   1.1641934      1.722036       0.472197       2.194233     
     27000   0.97975573     1.449222       0.31924088     1.7684629    
     27500   0.94209335     1.3935131      0.31068678     1.7041999    
     28000   0.94522342     1.398143       0.5320411      1.9301841    
     28500   1.0697128      1.5822835      0.40105036     1.9833339    
     29000   1.1264717      1.6662394      0.40687876     2.0731181    
     29500   0.75438197     1.1158567      0.29396853     1.4098252    
     30000   0.90289909     1.3355382      0.52023904     1.8557773    
     30500   0.99497453     1.4717332      0.41500466     1.8867378    
     31000   1.0281305      1.5207763      0.46140403     1.9821803    
     31500   0.91431031     1.3524173      0.23604963     1.588467     
     32000   1.2446809      1.8410905      0.35918097     2.2002714    
     32500   1.0566536      1.5629668      0.25809234     1.8210592    
     33000   0.97638053     1.4442295      0.45875476     1.9029843    
     33500   0.85167046     1.2597626      0.38325793     1.6430205    
     34000   1.0438724      1.5440613      0.52396648     2.0680277    
     34500   1.1893095      1.759187       0.26522729     2.0244143    
     35000   1.0795089      1.5967736      0.35150447     1.9482781    
     35500   0.97009591     1.4349335      0.37312431     1.8080578    
     36000   1.1989421      1.7734352      0.41930992     2.1927451    
     36500   1.0522459      1.5564471      0.40076225     1.9572094    
     37000   1.0533651      1.5581026      0.3078876      1.8659902    
     37500   0.85152643     1.2595495      0.32679705     1.5863466    
     38000   1.0654127      1.5759229      0.24158517     1.8175081    
     38500   0.98421432     1.455817       0.31230188     1.7681189    
     39000   1.1258666      1.6653444      0.28149236     1.9468368    
     39500   0.9536151      1.4105557      0.3840868      1.7946425    
     40000   1.0126549      1.4978853      0.43570478     1.9335901    
     40500   0.96086458     1.4212789      0.4548228      1.8761017    
     41000   1.0163601      1.503366       0.45805814     1.9614241    
     41500   1.0637292      1.5734328      0.40026349     1.9736963    
     42000   1.0989597      1.6255446      0.35583196     1.9813765    
     42500   1.1406648      1.6872333      0.61930175     2.3065351    
     43000   1.0709367      1.5840938      0.49448171     2.0785755    
     43500   1.0042915      1.4855145      0.4883655      1.9738799    
     44000   0.96297677     1.4244031      0.55455955     1.9789627    
     44500   0.94391323     1.396205       0.74886118     2.1450662    
     45000   1.1227681      1.6607612      0.51095724     2.1717184    
     45500   1.1250854      1.6641888      0.48581799     2.1500068    
     46000   1.1044728      1.6336994      0.44048435     2.0741838    
     46500   1.0496407      1.5525935      0.37541743     1.928011     
     47000   0.98736662     1.4604798      0.3831561      1.8436359    
     47500   1.0478579      1.5499564      0.32469862     1.874655     
     48000   0.99489373     1.4716136      0.3675943      1.8392079    
     48500   1.0121236      1.4970995      0.37154086     1.8686403    
     49000   0.99401885     1.4703195      0.40181168     1.8721312    
     49500   1.0759575      1.5915204      0.44501853     2.036539     
     50000   1.3061246      1.931976       0.45152469     2.3835007    
     50500   0.88505502     1.3091439      0.34088281     1.6500267    
     51000   1.1167908      1.6519197      0.52556731     2.177487     
     51500   0.87281123     1.2910333      0.33351303     1.6245463    
     52000   0.95731221     1.4160243      0.45440156     1.8704259    
     52500   1.0278197      1.5203167      0.44821966     1.9685364    
     53000   1.1302428      1.6718175      0.31909769     1.9909152    
     53500   0.85154087     1.2595709      0.43950255     1.6990734    
     54000   1.1164702      1.6514455      0.28656369     1.9380092    
     54500   0.87067522     1.2878738      0.55194553     1.8398193    
     55000   1.0486128      1.5510731      0.30611385     1.857187     
     55500   1.0392674      1.5372497      0.43366036     1.9709101    
     56000   0.93490085     1.3828742      0.39696532     1.7798395    
     56500   1.1270684      1.667122       0.32267218     1.9897942    
     57000   0.97676295     1.4447952      0.43365415     1.8784493    
     57500   1.0668461      1.5780432      0.27050657     1.8485498    
     58000   0.971827       1.4374941      0.24217659     1.6796707    
     58500   1.0131707      1.4986484      0.42406401     1.9227124    
     59000   1.2110421      1.7913332      0.40091961     2.1922528    
     59500   1.0572964      1.5639176      0.40716261     1.9710802    
     60000   0.99436961     1.4708384      0.45435566     1.925194     
     60500   1.1193942      1.6557705      0.3823452      2.0381157    
     61000   0.84260276     1.2463499      0.40531253     1.6516624    
     61500   1.1633355      1.7207671      0.3805033      2.1012704    
     62000   0.87765835     1.298203       0.45777347     1.7559765    
     62500   1.1245413      1.663384       0.36242288     2.0258069    
     63000   1.1496094      1.7004639      0.35125844     2.0517223    
     63500   0.99967196     1.4786814      0.36693052     1.845612     
     64000   0.86244238     1.275696       0.27800191     1.5536979    
     64500   1.1016881      1.6295802      0.35133728     1.9809175    
     65000   1.071233       1.5845322      0.32514363     1.9096758    
     65500   0.95653062     1.4148682      0.39734738     1.8122156    
     66000   1.0916364      1.6147121      0.38651778     2.0012299    
     66500   0.96410486     1.4260718      0.47492416     1.9009959    
     67000   0.83947349     1.2417212      0.46603256     1.7077538    
     67500   0.90211681     1.3343811      0.42079768     1.7551788    
     68000   1.0367254      1.5334896      0.49327825     2.0267679    
     68500   0.98612991     1.4586505      0.36817182     1.8268223    
     69000   1.0764814      1.5922954      0.36886117     1.9611566    
     69500   1.1458424      1.694892       0.39894623     2.0938382    
     70000   1.1833804      1.7504168      0.37339583     2.1238127    
     70500   0.9736175      1.4401425      0.36315469     1.8032972    
     71000   1.1246635      1.6635647      0.45474465     2.1183094    
     71500   1.0808011      1.5986849      0.36478183     1.9634668    
     72000   1.154388       1.7075323      0.38397582     2.0915081    
     72500   1.2134231      1.794855       0.34151054     2.1363656    
     73000   1.103075       1.6316318      0.46116117     2.0927929    
     73500   1.0735991      1.588032       0.49952756     2.0875596    
     74000   0.84741728     1.2534714      0.28382562     1.537297     
     74500   0.98926859     1.4632931      0.37858705     1.8418802    
     75000   1.0789015      1.5958751      0.22572218     1.8215973    
     75500   0.93884759     1.3887121      0.47262291     1.861335     
     76000   0.77303026     1.1434406      0.43714087     1.5805815    
     76500   1.2090348      1.788364       0.36545203     2.153816     
     77000   1.1338672      1.6771785      0.49296706     2.1701456    
     77500   1.1117179      1.644416       0.385096       2.029512     
     78000   1.0140622      1.499967       0.42644013     1.9264071    
     78500   0.83287315     1.2319582      0.41127066     1.6432289    
     79000   1.1103276      1.6423596      0.43343618     2.0757958    
     79500   0.969582       1.4341734      0.49680951     1.9309829    
     80000   0.96889805     1.4331617      0.47983766     1.9129994    
     80500   0.927503       1.3719315      0.42089524     1.7928268    
     81000   0.9374759      1.3866831      0.44853217     1.8352153    
     81500   1.0650444      1.5753781      0.38385047     1.9592286    
     82000   1.0678992      1.5796009      0.5022789      2.0818798    
     82500   0.97886396     1.4479029      0.41432468     1.8622276    
     83000   1.0390886      1.5369852      0.25161723     1.7886025    
     83500   0.88102431     1.3031818      0.43650319     1.739685     
     84000   1.0051119      1.4867281      0.27249129     1.7592194    
     84500   1.0302093      1.5238512      0.40505493     1.9289061    
     85000   1.0087017      1.492038       0.39301646     1.8850544    
     85500   0.89381984     1.3221085      0.33922304     1.6613316    
     86000   1.1656056      1.7241249      0.59484255     2.3189675    
     86500   1.099448       1.6262669      0.42245913     2.048726     
     87000   0.9471073      1.4009295      0.56993094     1.9708605    
     87500   1.0403823      1.5388989      0.41619793     1.9550968    
     88000   1.0283604      1.5211164      0.61917687     2.1402933    
     88500   0.99028959     1.4648034      0.49212584     1.9569292    
     89000   1.1820102      1.7483901      0.53838273     2.2867728    
     89500   0.95018857     1.4054873      0.37227557     1.7777628    
     90000   0.91734125     1.3569006      0.39570183     1.7526024    
     90500   0.91695549     1.35633        0.49362204     1.849952     
     91000   1.0483141      1.5506312      0.51208306     2.0627143    
     91500   0.98768805     1.4609552      0.38015624     1.8411115    
     92000   1.0091695      1.4927298      0.49058761     1.9833174    
     92500   1.0649703      1.5752686      0.43275592     2.0080246    
     93000   0.99649108     1.4739764      0.49890864     1.972885     
     93500   1.0968663      1.622448       0.35789254     1.9803406    
     94000   1.0644662      1.5745229      0.32936935     1.9038923    
     94500   1.0269066      1.518966       0.37566509     1.8946311    
     95000   1.0003961      1.4797525      0.34183365     1.8215861    
     95500   1.0406469      1.5392902      0.31946728     1.8587574    
     96000   1.0562369      1.5623504      0.32467082     1.8870212    
     96500   1.036461       1.5330986      0.34860527     1.8817039    
     97000   0.94880998     1.4034481      0.35936135     1.7628094    
     97500   0.88148371     1.3038613      0.4242238      1.7280851    
     98000   1.0799771      1.5974662      0.34625743     1.9437236    
     98500   1.0369802      1.5338666      0.33877353     1.8726401    
     99000   0.96431391     1.426381       0.53051531     1.9568963    
     99500   0.89171414     1.3189938      0.22695494     1.5459488    
    100000   1.0769267      1.592954       0.42765423     2.0206083    
    100046   0.93548872     1.3837437      0.40919587     1.7929396    
Loop time of 0.793232 on 1 procs for 100000 steps with 72 atoms

Performance: 10892146.580 tau/day, 126066.511 timesteps/s, 9.077 Matom-step/s
115.8% CPU use with 1 MPI tasks x 1 OpenMP threads

MPI task timing breakdown:
Section |  min time  |  avg time  |  max time  |%varavg| %total
---------------------------------------------------------------
Pair    | 0.14833    | 0.14833    | 0.14833    |   0.0 | 18.70
Neigh   | 0.012652   | 0.012652   | 0.012652   |   0.0 |  1.59
Comm    | 0.18051    | 0.18051    | 0.18051    |   0.0 | 22.76
Output  | 0.0035687  | 0.0035687  | 0.0035687  |   0.0 |  0.45
Modify  | 0.42166    | 0.42166    | 0.42166    |   0.0 | 53.16
Other   |            | 0.02652    |            |       |  3.34

Nlocal:             72 ave          72 max          72 min
Histogram: 1 0 0 0 0 0 0 0 0 0
Nghost:            223 ave         223 max         223 min
Histogram: 1 0 0 0 0 0 0 0 0 0
Neighs:            415 ave         415 max         415 min
Histogram: 1 0 0 0 0 0 0 0 0 0

Total # of neighbors = 415
Ave neighs/atom = 5.7638889
Neighbor list builds = 257
Dangerous builds = 0

write_data data.${outfile} nocoeff nofix
write_data data.1709054421 nocoeff nofix
System init for write_data ...
Generated 0 of 0 mixed pair_coeff terms from geometric mixing rule
Total wall time: 0:00:00
