LAMMPS (21 Nov 2023)
OMP_NUM_THREADS environment is not set. Defaulting to 1 thread. (src/comm.cpp:98)
  using 1 OpenMP thread(s) per MPI task
###variable outfile string L15.17
###variable L equal 15.17

units lj

newton off
atom_style      sphere
boundary        p p p
comm_modify     mode single vel yes


region      boxid block 0.0     $L      0.0       $L      0.0       $L
region      boxid block 0.0     5.322680157965874      0.0       $L      0.0       $L
region      boxid block 0.0     5.322680157965874      0.0       5.322680157965874      0.0       $L
region      boxid block 0.0     5.322680157965874      0.0       5.322680157965874      0.0       5.322680157965874
#create_box  1 boxid
include create_box.in
create_box 1 boxid
Created orthogonal box = (0 0 0) to (5.3226802 5.3226802 5.3226802)
  1 by 1 by 1 MPI processor grid


######
include create_np.in
create_atoms 1 random 72 2771 boxid
Created 72 atoms
  using lattice units in orthogonal box = (0 0 0) to (5.3226802 5.3226802 5.3226802)
  create_atoms CPU = 0.000 seconds
velocity    all create 1.0 87287 dist gaussian

#####
include particles.in
set type 1 diameter 1.0
Setting atom values ...
  72 settings made for diameter
set type 1 mass 26.0
Setting atom values ...
  72 settings made for mass

###
fix 1 all langevin 1.0 1.0 0.1 12345
fix 2 all nve/sphere

###
pair_style lj/cut 1.
include pots_lj_lan.in
pair_coeff 1 1 10.0 1.0 1.122462048309373
pair_modify shift yes



minimize          1.0e-4 1.0e-6 1000 1000
Generated 0 of 0 mixed pair_coeff terms from geometric mixing rule
Neighbor list info ...
  update: every = 1 steps, delay = 0 steps, check = yes
  max neighbors/atom: 2000, page size: 100000
  master list distance cutoff = 1.422462
  ghost atom cutoff = 1.422462
  binsize = 0.71123102, bins = 8 8 8
  1 neighbor lists, perpetual/occasional/extra = 1 0 0
  (1) pair lj/cut, perpetual
      attributes: half, newton off
      pair build: half/bin/newtoff
      stencil: full/bin/3d
      bin: standard
Per MPI rank memory allocation (min/avg/max) = 5.442 | 5.442 | 5.442 Mbytes
   Step          Temp          E_pair         E_mol          TotEng         Press     
         0   49.656342      8.8772269e+15  0              8.8772269e+15  1.6954255e+16
        47   49.656342      1.2012475e-10  0              73.450006      23.379871    
Loop time of 0.00141542 on 1 procs for 47 steps with 72 atoms

0.0% CPU use with 1 MPI tasks x 1 OpenMP threads

Minimization stats:
  Stopping criterion = quadratic factors are zero
  Energy initial, next-to-last, final = 
    8.87722691927558e+15 1.20124749653567e-10 1.20124749653567e-10
  Force two-norm initial, final = 2.4299754e+20 0.0044465377
  Force max component initial, final = 1.5116261e+20 0.0022096618
  Final line search alpha, max atom move = 0.5 0.0011048309
  Iterations, force evaluations = 47 189

MPI task timing breakdown:
Section |  min time  |  avg time  |  max time  |%varavg| %total
---------------------------------------------------------------
Pair    | 0.00038771 | 0.00038771 | 0.00038771 |   0.0 | 27.39
Neigh   | 0.00039841 | 0.00039841 | 0.00039841 |   0.0 | 28.15
Comm    | 0.00042231 | 0.00042231 | 0.00042231 |   0.0 | 29.84
Output  | 0          | 0          | 0          |   0.0 |  0.00
Modify  | 0          | 0          | 0          |   0.0 |  0.00
Other   |            | 0.000207   |            |       | 14.62

Nlocal:             72 ave          72 max          72 min
Histogram: 1 0 0 0 0 0 0 0 0 0
Nghost:            200 ave         200 max         200 min
Histogram: 1 0 0 0 0 0 0 0 0 0
Neighs:            259 ave         259 max         259 min
Histogram: 1 0 0 0 0 0 0 0 0 0

Total # of neighbors = 259
Ave neighs/atom = 3.5972222
Neighbor list builds = 11
Dangerous builds = 0

thermo_style custom step temp ke pe etotal
thermo 500
timestep 0.001
#dump    id all custom 5000 out_lan_${outfile}.lammpstrj id type radius mass xu yu zu vx vy vz fx fy fz
dump    id all custom 5000 out_lan_${outfile}.lammpstrj id type radius mass x y z
dump    id all custom 5000 out_lan_1709053957.lammpstrj id type radius mass x y z
run 100000
Generated 0 of 0 mixed pair_coeff terms from geometric mixing rule
Per MPI rank memory allocation (min/avg/max) = 4.317 | 4.317 | 4.317 Mbytes
   Step          Temp          KinEng         PotEng         TotEng    
        47   49.656342      73.450006      1.2012475e-10  73.450006    
       500   1.0903308      1.612781       0.27990406     1.892685     
      1000   1.0396731      1.5378498      0.19699342     1.7348432    
      1500   0.84089653     1.2438261      0.30066239     1.5444885    
      2000   1.0457184      1.5467918      0.1595149      1.7063067    
      2500   1.2468264      1.8442641      0.14852264     1.9927867    
      3000   1.0535279      1.5583433      0.17442755     1.7327709    
      3500   0.9313152      1.3775704      0.2413125      1.6188829    
      4000   1.0708448      1.5839579      0.24506786     1.8290257    
      4500   1.0833274      1.6024217      0.14136682     1.7437886    
      5000   1.219528       1.8038852      0.2962962      2.1001814    
      5500   1.0219909      1.5116948      0.25383825     1.7655331    
      6000   1.0942264      1.6185433      0.3360705      1.9546138    
      6500   0.97582604     1.4434094      0.1427601      1.5861695    
      7000   0.94224139     1.393732       0.2460632      1.6397953    
      7500   1.1498051      1.7007534      0.18802808     1.8887815    
      8000   1.0021095      1.4822869      0.1273312      1.6096181    
      8500   1.0791272      1.596209       0.1227567      1.7189657    
      9000   1.1433696      1.6912342      0.14021553     1.8314497    
      9500   1.1033916      1.6321001      0.14613322     1.7782333    
     10000   0.98552815     1.4577604      0.14854701     1.6063074    
     10500   0.90275694     1.335328       0.24290705     1.578235     
     11000   1.1224748      1.6603273      0.049413106    1.7097404    
     11500   1.0233013      1.5136332      0.14833959     1.6619728    
     12000   0.84334201     1.2474434      0.19150178     1.4389452    
     12500   0.97270249     1.4387891      0.2574937      1.6962828    
     13000   0.89486846     1.3236596      0.12647427     1.4501339    
     13500   1.1391977      1.6850633      0.10000548     1.7850688    
     14000   1.0403093      1.5387908      0.23597426     1.7747651    
     14500   1.0122075      1.4972236      0.16956018     1.6667838    
     15000   0.87755227     1.2980461      0.12506897     1.423115     
     15500   1.0109197      1.4953187      0.054393475    1.5497122    
     16000   0.96875627     1.432952       0.14064625     1.5735982    
     16500   0.89646564     1.3260221      0.094163413    1.4201855    
     17000   1.1089901      1.6403812      0.18598582     1.826367     
     17500   0.92630016     1.3701523      0.13439969     1.504552     
     18000   1.0391709      1.5371069      0.18829608     1.725403     
     18500   0.88780546     1.3132122      0.1657584      1.4789706    
     19000   1.0449219      1.5456136      0.12020063     1.6658142    
     19500   1.011312       1.495899       0.1224809      1.6183799    
     20000   1.0841338      1.6036145      0.2045738      1.8081883    
     20500   0.87279744     1.2910129      0.097763176    1.3887761    
     21000   1.0947749      1.6193546      0.18998197     1.8093366    
     21500   0.93165412     1.3780717      0.17763141     1.5557031    
     22000   0.87030607     1.2873277      0.27073226     1.55806      
     22500   1.111655       1.644323       0.20015985     1.8444829    
     23000   1.0738464      1.5883977      0.21383406     1.8022318    
     23500   0.83979389     1.2421951      0.10494964     1.3471448    
     24000   0.91328416     1.3508995      0.23310266     1.5840022    
     24500   1.0021376      1.4823286      0.13805188     1.6203805    
     25000   1.009385       1.4930487      0.16235717     1.6554058    
     25500   1.0182124      1.5061059      0.26856866     1.7746745    
     26000   0.84592777     1.2512682      0.18135456     1.4326227    
     26500   1.0937228      1.6177983      0.16592384     1.7837221    
     27000   0.98020965     1.4498934      0.16406896     1.6139624    
     27500   0.88914139     1.3151883      0.13861321     1.4538015    
     28000   0.97982874     1.44933        0.17313946     1.6224695    
     28500   0.99394747     1.470214       0.28298449     1.7531985    
     29000   1.1517611      1.7036467      0.10289616     1.8065429    
     29500   0.77655807     1.1486588      0.17809102     1.3267498    
     30000   1.0009741      1.4806076      0.22599857     1.7066061    
     30500   0.9666958      1.4299042      0.19106804     1.6209722    
     31000   0.9977681      1.4758653      0.17791086     1.6537762    
     31500   0.84471337     1.2494719      0.15370353     1.4031754    
     32000   1.1937919      1.7658172      0.2475793      2.0133965    
     32500   1.0218902      1.511546       0.18135988     1.6929058    
     33000   1.0333015      1.5284252      0.25215809     1.7805833    
     33500   0.86777786     1.2835881      0.16511124     1.4486993    
     34000   1.085083       1.6050186      0.17242199     1.7774406    
     34500   1.1496206      1.7004804      0.1708916      1.871372     
     35000   1.0025882      1.4829951      0.32468612     1.8076812    
     35500   1.0194065      1.5078722      0.13920802     1.6470802    
     36000   1.1829876      1.7498358      0.21715723     1.966993     
     36500   1.0231119      1.513353       0.23262837     1.7459813    
     37000   1.0398819      1.5381586      0.27804701     1.8162056    
     37500   0.86178461     1.2747231      0.1653484      1.4400715    
     38000   0.99830894     1.4766653      0.18032984     1.6569952    
     38500   1.0279933      1.5205734      0.14893172     1.6695051    
     39000   1.0226097      1.5126102      0.23956121     1.7521714    
     39500   0.92773544     1.3722753      0.15306513     1.5253405    
     40000   0.90673922     1.3412184      0.30516124     1.6463797    
     40500   0.96772045     1.4314198      0.24817898     1.6795988    
     41000   0.99658861     1.4741207      0.24320031     1.717321     
     41500   1.0220319      1.5117555      0.21616394     1.7279195    
     42000   1.1081045      1.6390712      0.26565886     1.9047301    
     42500   1.1144766      1.6484967      0.20907545     1.8575721    
     43000   0.98220227     1.4528409      0.26435422     1.7171951    
     43500   0.98712819     1.4601271      0.1814846      1.6416117    
     44000   1.006308       1.4884972      0.24377184     1.732269     
     44500   0.87542928     1.2949058      0.28178074     1.5766865    
     45000   1.0465332      1.547997       0.12947627     1.6774733    
     45500   1.2044725      1.7816155      0.11401064     1.8956262    
     46000   1.0041138      1.4852517      0.09923463     1.5844863    
     46500   1.0547317      1.5601239      0.1651835      1.7253074    
     47000   0.96187648     1.4227756      0.25648898     1.6792646    
     47500   0.91541        1.354044       0.20239587     1.5564398    
     48000   0.9809917      1.4510502      0.24248379     1.693534     
     48500   1.0163781      1.5033926      0.23702516     1.7404177    
     49000   1.1024851      1.6307593      0.12805219     1.7588115    
     49500   0.97014925     1.4350124      0.15717314     1.5921856    
     50000   1.3249247      1.9597845      0.22208231     2.1818668    
     50500   0.83726777     1.2384586      0.16522922     1.4036878    
     51000   1.14844        1.6987342      0.15009238     1.8488266    
     51500   0.85763487     1.2685849      0.1722858      1.4408707    
     52000   0.9418835      1.3932027      0.15080586     1.5440085    
     52500   1.1136276      1.6472408      0.21014013     1.8573809    
     53000   1.145315       1.6941118      0.1531033      1.8472151    
     53500   0.97110535     1.4364267      0.17355916     1.6099858    
     54000   1.1500301      1.7010862      0.17557754     1.8766637    
     54500   0.93447754     1.382248       0.21440281     1.5966508    
     55000   1.0202271      1.509086       0.1480089      1.6570949    
     55500   0.98884541     1.4626672      0.089533823    1.552201     
     56000   0.93988744     1.3902502      0.069085704    1.4593359    
     56500   1.1906684      1.761197       0.18884415     1.9500411    
     57000   0.95252378     1.4089414      0.12843849     1.5373799    
     57500   0.98214139     1.4527508      0.2524016      1.7051524    
     58000   0.94816743     1.4024977      0.096379542    1.4988772    
     58500   1.0573866      1.5640511      0.18164235     1.7456934    
     59000   1.2078009      1.7865388      0.25612743     2.0426662    
     59500   0.95159938     1.4075741      0.24133113     1.6489052    
     60000   0.93916275     1.3891782      0.28936064     1.6785389    
     60500   1.1022847      1.6304628      0.17454249     1.8050053    
     61000   0.87892539     1.3000771      0.14840007     1.4484772    
     61500   1.1597183      1.7154166      0.091790748    1.8072073    
     62000   0.94403598     1.3963866      0.18818788     1.5845744    
     62500   1.0648683      1.5751177      0.24565678     1.8207745    
     63000   1.1003355      1.6275795      0.2014518      1.8290313    
     63500   0.94875969     1.4033737      0.17325858     1.5766323    
     64000   0.85618298     1.2664373      0.15617355     1.4226109    
     64500   0.97506042     1.4422769      0.31244899     1.7547259    
     65000   1.0380738      1.5354841      0.11869203     1.6541762    
     65500   0.90241347     1.3348199      0.10034466     1.4351646    
     66000   1.0278172      1.5203129      0.12089848     1.6412114    
     66500   0.89619324     1.3256192      0.24459499     1.5702142    
     67000   0.86292615     1.2764116      0.22850548     1.5049171    
     67500   0.90284445     1.3354574      0.16891604     1.5043735    
     68000   1.0283591      1.5211145      0.2326578      1.7537723    
     68500   0.92417386     1.3670072      0.14301296     1.5100201    
     69000   1.1283256      1.6689816      0.23883774     1.9078194    
     69500   1.2146082      1.7966079      0.064100397    1.8607083    
     70000   1.1109367      1.6432606      0.088297723    1.7315583    
     70500   1.0515658      1.555441       0.084542322    1.6399834    
     71000   1.1328017      1.6756025      0.17530339     1.8509059    
     71500   1.1172103      1.6525402      0.10851814     1.7610583    
     72000   1.1363069      1.6807873      0.17438602     1.8551733    
     72500   1.1976281      1.7714915      0.18599518     1.9574867    
     73000   1.0838304      1.6031658      0.18022338     1.7833892    
     73500   1.1130355      1.646365       0.18123109     1.8275961    
     74000   0.88753903     1.3128181      0.16839894     1.4812171    
     74500   0.93985538     1.3902027      0.17112966     1.5613324    
     75000   0.92449702     1.3674852      0.18478375     1.5522689    
     75500   0.91787817     1.3576948      0.30286322     1.660558     
     76000   0.84766632     1.2538398      0.12283504     1.3766748    
     76500   1.2287192      1.8174805      0.095047141    1.9125277    
     77000   1.1564685      1.7106096      0.18923227     1.8998419    
     77500   1.0553352      1.5610167      0.097370502    1.6583872    
     78000   0.90548007     1.3393559      0.20855502     1.547911     
     78500   0.88776652     1.3131546      0.12926656     1.4424212    
     79000   1.0654404      1.5759639      0.097173962    1.6731378    
     79500   0.98178415     1.4522224      0.18154114     1.6337635    
     80000   1.0020344      1.4821759      0.12984459     1.6120205    
     80500   0.94555856     1.3986387      0.24025263     1.6388913    
     81000   0.92882998     1.3738943      0.13689131     1.5107856    
     81500   1.0329124      1.5278496      0.10951362     1.6373632    
     82000   1.1541062      1.7071154      0.094989389    1.8021048    
     82500   0.90650729     1.3408754      0.1207573      1.4616327    
     83000   1.0323177      1.5269699      0.065252554    1.5922225    
     83500   0.90418462     1.3374398      0.099074046    1.4365138    
     84000   0.9606006      1.4208884      0.091976982    1.5128654    
     84500   1.0079174      1.4908778      0.26340436     1.7542822    
     85000   1.0881325      1.6095294      0.18630857     1.795838     
     85500   0.86209519     1.2751825      0.13173811     1.4069206    
     86000   1.1285339      1.6692898      0.18627739     1.8555672    
     86500   1.0714105      1.5847947      0.226916       1.8117107    
     87000   0.99812271     1.4763898      0.17310486     1.6494947    
     87500   1.0256875      1.5171628      0.16924606     1.6864089    
     88000   1.009701       1.493516       0.27590448     1.7694205    
     88500   0.94604081     1.399352       0.14021899     1.539571     
     89000   1.2759854      1.8873951      0.12698379     2.0143789    
     89500   0.96313511     1.4246374      0.14025881     1.5648962    
     90000   0.94258645     1.3942425      0.1686858      1.5629283    
     90500   0.84842991     1.2549692      0.15933722     1.4143065    
     91000   1.1330372      1.6759509      0.13156777     1.8075186    
     91500   0.91194258     1.3489151      0.21293838     1.5618534    
     92000   0.94779502     1.4019468      0.23777035     1.6397172    
     92500   1.0310768      1.5251345      0.28795906     1.8130936    
     93000   0.98097718     1.4510287      0.13416124     1.58519      
     93500   1.0358109      1.5321369      0.26516059     1.7972975    
     94000   1.0267223      1.5186935      0.11202655     1.63072      
     94500   0.98406845     1.4556012      0.16764853     1.6232498    
     95000   1.046443       1.5478636      0.15377395     1.7016376    
     95500   1.0485156      1.5509293      0.20062839     1.7515577    
     96000   1.0368682      1.5337009      0.15576509     1.689466     
     96500   1.0124984      1.4976539      0.10351106     1.6011649    
     97000   0.92869174     1.3736899      0.20894249     1.5826324    
     97500   0.89188051     1.3192399      0.11498668     1.4342266    
     98000   1.0630463      1.5724227      0.13165514     1.7040779    
     98500   0.94870087     1.4032867      0.21600514     1.6192918    
     99000   0.98832898     1.4619033      0.17574059     1.6376439    
     99500   0.86705772     1.2825229      0.12716306     1.4096859    
    100000   1.1225205      1.6603948      0.19813073     1.8585256    
    100047   0.94958685     1.4045972      0.20130844     1.6059056    
Loop time of 0.633055 on 1 procs for 100000 steps with 72 atoms

Performance: 13648099.106 tau/day, 157964.110 timesteps/s, 11.373 Matom-step/s
127.3% CPU use with 1 MPI tasks x 1 OpenMP threads

MPI task timing breakdown:
Section |  min time  |  avg time  |  max time  |%varavg| %total
---------------------------------------------------------------
Pair    | 0.084391   | 0.084391   | 0.084391   |   0.0 | 13.33
Neigh   | 0.0092655  | 0.0092655  | 0.0092655  |   0.0 |  1.46
Comm    | 0.13968    | 0.13968    | 0.13968    |   0.0 | 22.06
Output  | 0.0032331  | 0.0032331  | 0.0032331  |   0.0 |  0.51
Modify  | 0.37199    | 0.37199    | 0.37199    |   0.0 | 58.76
Other   |            | 0.0245     |            |       |  3.87

Nlocal:             72 ave          72 max          72 min
Histogram: 1 0 0 0 0 0 0 0 0 0
Nghost:            198 ave         198 max         198 min
Histogram: 1 0 0 0 0 0 0 0 0 0
Neighs:            245 ave         245 max         245 min
Histogram: 1 0 0 0 0 0 0 0 0 0

Total # of neighbors = 245
Ave neighs/atom = 3.4027778
Neighbor list builds = 269
Dangerous builds = 0

write_data data.${outfile} nocoeff nofix
write_data data.1709053957 nocoeff nofix
System init for write_data ...
Generated 0 of 0 mixed pair_coeff terms from geometric mixing rule
Total wall time: 0:00:00
