LAMMPS (21 Nov 2023)
OMP_NUM_THREADS environment is not set. Defaulting to 1 thread. (src/comm.cpp:98)
  using 1 OpenMP thread(s) per MPI task
###variable outfile string L15.17
###variable L equal 15.17

units lj

newton off
atom_style      sphere
boundary        p p p
comm_modify     mode single vel yes


region      boxid block 0.0     $L      0.0       $L      0.0       $L
region      boxid block 0.0     5.209397078678045      0.0       $L      0.0       $L
region      boxid block 0.0     5.209397078678045      0.0       5.209397078678045      0.0       $L
region      boxid block 0.0     5.209397078678045      0.0       5.209397078678045      0.0       5.209397078678045
#create_box  1 boxid
include create_box.in
create_box 1 boxid
Created orthogonal box = (0 0 0) to (5.2093971 5.2093971 5.2093971)
  1 by 1 by 1 MPI processor grid


######
include create_np.in
create_atoms 1 random 108 7104 boxid
Created 108 atoms
  using lattice units in orthogonal box = (0 0 0) to (5.2093971 5.2093971 5.2093971)
  create_atoms CPU = 0.000 seconds
velocity    all create 1.0 87287 dist gaussian

#####
include particles.in
set type 1 diameter 1.0
Setting atom values ...
  108 settings made for diameter
set type 1 mass 26.0
Setting atom values ...
  108 settings made for mass

###
fix 1 all langevin 1.0 1.0 0.1 12345
fix 2 all nve/sphere

###
pair_style lj/cut 1.
include pots_lj_lan.in
pair_coeff 1 1 10.0 1.0 1.122462048309373
pair_modify shift yes



minimize          1.0e-4 1.0e-6 1000 1000
Generated 0 of 0 mixed pair_coeff terms from geometric mixing rule
Neighbor list info ...
  update: every = 1 steps, delay = 0 steps, check = yes
  max neighbors/atom: 2000, page size: 100000
  master list distance cutoff = 1.422462
  ghost atom cutoff = 1.422462
  binsize = 0.71123102, bins = 8 8 8
  1 neighbor lists, perpetual/occasional/extra = 1 0 0
  (1) pair lj/cut, perpetual
      attributes: half, newton off
      pair build: half/bin/newtoff
      stencil: full/bin/3d
      bin: standard
Per MPI rank memory allocation (min/avg/max) = 5.457 | 5.457 | 5.457 Mbytes
   Step          Temp          E_pair         E_mol          TotEng         Press     
         0   49.656342      7.3871775e+09  0              7.3871776e+09  2.2573659e+10
       119   49.656342      1.5410233e-10  0              73.794842      37.58342     
Loop time of 0.0103881 on 1 procs for 119 steps with 108 atoms

373.7% CPU use with 1 MPI tasks x 1 OpenMP threads

Minimization stats:
  Stopping criterion = linesearch alpha is zero
  Energy initial, next-to-last, final = 
      7387177509.41602 1.54102327606417e-10 1.54102327606417e-10
  Force two-norm initial, final = 9.0839836e+13 0.0061681891
  Force max component initial, final = 4.6825612e+13 0.0033029958
  Final line search alpha, max atom move = 0.03125 0.00010321862
  Iterations, force evaluations = 119 756

MPI task timing breakdown:
Section |  min time  |  avg time  |  max time  |%varavg| %total
---------------------------------------------------------------
Pair    | 0.0042157  | 0.0042157  | 0.0042157  |   0.0 | 40.58
Neigh   | 0.0024027  | 0.0024027  | 0.0024027  |   0.0 | 23.13
Comm    | 0.0027233  | 0.0027233  | 0.0027233  |   0.0 | 26.22
Output  | 0          | 0          | 0          |   0.0 |  0.00
Modify  | 0          | 0          | 0          |   0.0 |  0.00
Other   |            | 0.001046   |            |       | 10.07

Nlocal:            108 ave         108 max         108 min
Histogram: 1 0 0 0 0 0 0 0 0 0
Nghost:            294 ave         294 max         294 min
Histogram: 1 0 0 0 0 0 0 0 0 0
Neighs:            708 ave         708 max         708 min
Histogram: 1 0 0 0 0 0 0 0 0 0

Total # of neighbors = 708
Ave neighs/atom = 6.5555556
Neighbor list builds = 30
Dangerous builds = 0

thermo_style custom step temp ke pe etotal
thermo 500
timestep 0.001
#dump    id all custom 5000 out_lan_${outfile}.lammpstrj id type radius mass xu yu zu vx vy vz fx fy fz
dump    id all custom 5000 out_lan_${outfile}.lammpstrj id type radius mass x y z
dump    id all custom 5000 out_lan_1708822984.lammpstrj id type radius mass x y z
run 100000
Generated 0 of 0 mixed pair_coeff terms from geometric mixing rule
Per MPI rank memory allocation (min/avg/max) = 4.332 | 4.332 | 4.332 Mbytes
   Step          Temp          KinEng         PotEng         TotEng    
       119   49.656342      73.794842      1.5410233e-10  73.794842    
       500   1.3906465      2.0666553      1.8390808      3.905736     
      1000   1.1632579      1.7287305      1.0443092      2.7730397    
      1500   1.0491362      1.559133       0.88122872     2.4403617    
      2000   0.98070115     1.4574309      0.77363793     2.2310688    
      2500   1.0299772      1.5306605      0.83283998     2.3635005    
      3000   0.98882681     1.4695065      0.59735962     2.0668661    
      3500   0.760033       1.1294935      0.65868253     1.788176     
      4000   0.95732186     1.4226867      0.65779035     2.080477     
      4500   1.1947072      1.7754676      0.66476879     2.4402364    
      5000   1.0829505      1.6093848      0.5514917      2.1608765    
      5500   1.1230876      1.669033       0.74347363     2.4125066    
      6000   0.99829808     1.4835819      0.64553291     2.1291148    
      6500   1.124054       1.6704691      0.72549812     2.3959672    
      7000   0.91685454     1.3625477      0.9328316      2.2953793    
      7500   1.0767537      1.6001756      0.6653856      2.2655612    
      8000   1.1220116      1.667434       0.77274913     2.4401831    
      8500   1.0616109      1.5776718      0.70986392     2.2875357    
      9000   1.1663442      1.7333171      0.59970003     2.3330171    
      9500   0.97434275     1.4479816      0.63988871     2.0878703    
     10000   1.1292845      1.6782423      0.7661461      2.4443884    
     10500   0.9962958      1.4806063      0.65936156     2.1399678    
     11000   1.049051       1.5590063      0.7366917      2.295698     
     11500   0.9537825      1.4174268      0.70241486     2.1198416    
     12000   1.0089316      1.4993845      0.57856486     2.0779493    
     12500   0.99360802     1.4766119      0.63201049     2.1086224    
     13000   1.0447009      1.5525417      0.58087869     2.1334204    
     13500   1.1690483      1.7373356      0.63088063     2.3682162    
     14000   0.97737274     1.4524845      0.67314742     2.1256319    
     14500   1.0708727      1.5914358      0.76385974     2.3552956    
     15000   1.0922541      1.6232109      0.79200655     2.4152175    
     15500   1.0570322      1.5708673      0.79305286     2.3639202    
     16000   0.91368463     1.3578369      0.66462084     2.0224577    
     16500   0.94755055     1.4081654      0.57551664     1.983682     
     17000   1.047776       1.5571116      0.61469941     2.171811     
     17500   1.0173844      1.5119463      0.59413407     2.1060804    
     18000   1.0649959      1.5827022      0.72175417     2.3044564    
     18500   1.0537465      1.5659844      0.70989229     2.2758767    
     19000   1.0566176      1.5702512      0.61495347     2.1852046    
     19500   1.050702       1.5614599      0.91408332     2.4755432    
     20000   0.93599063     1.3909861      0.61154184     2.0025279    
     20500   1.0545641      1.5671994      0.55699527     2.1241947    
     21000   0.92178106     1.3698691      0.74405023     2.1139193    
     21500   0.91945196     1.3664078      0.70565175     2.0720595    
     22000   1.0156921      1.5094313      0.5814769      2.0909082    
     22500   0.98549456     1.4645544      0.66235303     2.1269074    
     23000   0.98422612     1.4626694      0.57705387     2.0397233    
     23500   1.075334       1.5980659      0.70193656     2.3000024    
     24000   1.0307315      1.5317815      0.67355812     2.2053396    
     24500   1.0308862      1.5320115      0.64923119     2.1812427    
     25000   1.0527271      1.5644695      0.6175723      2.1820418    
     25500   1.1413285      1.696141       0.56855647     2.2646975    
     26000   0.90937554     1.3514331      0.66792654     2.0193596    
     26500   1.1039787      1.640635       0.64954427     2.2901793    
     27000   0.90580682     1.3461296      0.6474616      1.9935912    
     27500   0.81352383     1.2089868      0.53135694     1.7403437    
     28000   0.86992084     1.292799       0.53242206     1.8252211    
     28500   0.87589186     1.3016726      0.65076141     1.952434     
     29000   0.96699075     1.4370557      0.63601544     2.0730711    
     29500   1.0183056      1.5133153      0.83418999     2.3475052    
     30000   0.89785957     1.3343191      0.7076898      2.0420089    
     30500   0.96248089     1.4303535      0.66164228     2.0919958    
     31000   1.0895945      1.6192585      0.62330568     2.2425642    
     31500   0.99544731     1.4793453      0.78029042     2.2596357    
     32000   0.98367811     1.461855       0.73714104     2.198996     
     32500   1.022054       1.5188858      0.91051326     2.4293991    
     33000   1.1073634      1.645665       0.53095374     2.1766188    
     33500   1.1821224      1.7567652      0.75459597     2.5113612    
     34000   1.0412183      1.547366       0.63444367     2.1818097    
     34500   0.91418125     1.3585749      0.74786026     2.1064352    
     35000   1.0854035      1.6130302      0.5923726      2.2054028    
     35500   0.91257547     1.3561885      0.72087443     2.077063     
     36000   0.99135979     1.4732708      0.6477878      2.1210586    
     36500   1.0478416      1.557209       0.71154387     2.2687529    
     37000   0.96362343     1.4320515      0.7705814      2.2026329    
     37500   0.99308398     1.4758331      0.7578448      2.2336779    
     38000   0.88433873     1.3142256      0.59996631     1.9141919    
     38500   1.1479         1.7059069      0.90369933     2.6096062    
     39000   1.0181826      1.5131325      0.74595127     2.2590837    
     39500   1.1031721      1.6394363      0.67365595     2.3130923    
     40000   1.12374        1.6700025      0.56987498     2.2398775    
     40500   0.97027762     1.4419403      0.77437402     2.2163144    
     41000   1.0482129      1.5577608      0.75390122     2.311662     
     41500   1.0232738      1.5206986      0.66346792     2.1841666    
     42000   1.1091193      1.6482746      0.57070442     2.218979     
     42500   0.9847499      1.4634478      0.6239484      2.0873962    
     43000   1.0386137      1.5434954      0.73929239     2.2827878    
     43500   1.0979059      1.6316101      0.6004591      2.2320692    
     44000   1.1120881      1.6526864      0.70733515     2.3600216    
     44500   1.0666768      1.5852003      0.70488533     2.2900856    
     45000   1.0965902      1.6296549      0.57414429     2.2037992    
     45500   1.0013129      1.4880623      0.66445926     2.1525215    
     46000   0.9332009      1.3868402      0.74479674     2.131637     
     46500   0.94852971     1.4096205      0.65448342     2.064104     
     47000   1.0186767      1.5138668      0.66674818     2.180615     
     47500   1.1462791      1.7034981      0.6742991      2.3777972    
     48000   1.0572971      1.571261       0.79979357     2.3710545    
     48500   0.95442393     1.41838        0.76657201     2.184952     
     49000   0.92620039     1.3764367      0.71652211     2.0929588    
     49500   1.1164888      1.6592265      0.58892228     2.2481487    
     50000   0.97725099     1.4523036      0.59947465     2.0517782    
     50500   0.83730628     1.2443302      0.60423675     1.8485669    
     51000   0.89262861     1.3265453      0.72008839     2.0466337    
     51500   0.95758154     1.4230726      0.74764776     2.1707203    
     52000   1.0298599      1.5304863      0.53869806     2.0691843    
     52500   0.95952076     1.4259545      0.8007614      2.2267159    
     53000   1.1166521      1.6594691      0.57758777     2.2370569    
     53500   1.0014362      1.4882455      0.57071524     2.0589607    
     54000   0.92839076     1.3796918      0.59843043     1.9781223    
     54500   1.0640973      1.5813669      0.74810782     2.3294747    
     55000   1.0372997      1.5415427      0.58099194     2.1225346    
     55500   0.95793465     1.4235973      0.61414861     2.0377459    
     56000   0.98792798     1.4681707      0.6339005      2.1020712    
     56500   0.99972801     1.4857069      0.67617676     2.1618837    
     57000   1.0001689      1.4863622      0.63284935     2.1192115    
     57500   1.1233341      1.6693993      0.69805197     2.3674513    
     58000   0.98679815     1.4664917      0.74584027     2.212332     
     58500   0.93747812     1.3931967      0.72283524     2.1160319    
     59000   1.0818984      1.6078213      0.58669452     2.1945158    
     59500   1.1127364      1.65365        0.68222165     2.3358716    
     60000   1.0309659      1.5321298      0.6112076      2.1433374    
     60500   1.0435978      1.5509023      0.46127757     2.0121798    
     61000   1.1310134      1.6808116      0.59973868     2.2805503    
     61500   1.0633817      1.5803034      0.53057172     2.1108751    
     62000   0.99852939     1.4839256      0.75646031     2.2403859    
     62500   1.0274961      1.5269734      0.55487193     2.0818453    
     63000   1.0036946      1.4916017      0.60259361     2.0941953    
     63500   1.0536647      1.5658627      0.57788184     2.1437446    
     64000   1.0370393      1.5411557      0.67911364     2.2202693    
     64500   1.1137425      1.6551451      0.70945595     2.3646011    
     65000   1.0866978      1.6149536      0.5735354      2.188489     
     65500   1.0414142      1.5476572      0.59284678     2.1405039    
     66000   1.022838       1.5200509      0.73725247     2.2573034    
     66500   1.0622658      1.578645       0.6863058      2.2649508    
     67000   0.89063551     1.3235833      0.87298431     2.1965676    
     67500   0.95120307     1.4135934      0.60992132     2.0235148    
     68000   1.2431393      1.8474431      0.55488966     2.4023328    
     68500   1.1182215      1.6618014      0.59657288     2.2583743    
     69000   0.85764144     1.2745505      0.62541398     1.8999645    
     69500   1.1459924      1.7030721      0.59116786     2.29424      
     70000   1.0304081      1.5313009      0.55831267     2.0896136    
     70500   0.9217451      1.3698156      0.52821299     1.8980286    
     71000   0.96987032     1.4413351      0.63737809     2.0787132    
     71500   0.98984458     1.471019       0.69447059     2.1654896    
     72000   1.0038841      1.4918833      0.62337964     2.1152629    
     72500   1.0410631      1.5471355      0.73895383     2.2860893    
     73000   0.90713726     1.3481068      0.76375488     2.1118616    
     73500   0.99223865     1.4745769      0.61706096     2.0916378    
     74000   1.0899745      1.6198232      0.49666694     2.1164902    
     74500   0.94143292     1.3990739      0.6240287      2.0231026    
     75000   0.88004051     1.307838       0.61275607     1.9205941    
     75500   0.90933589     1.3513742      0.62732678     1.978701     
     76000   1.0151128      1.5085704      0.5520814      2.0606518    
     76500   1.0538924      1.5662011      0.6559954      2.2221965    
     77000   1.0773255      1.6010253      0.7186885      2.3197138    
     77500   1.0128538      1.5052132      0.56032652     2.0655398    
     78000   0.96429228     1.4330455      0.55246328     1.9855087    
     78500   0.8806202      1.3086995      0.54709893     1.8557984    
     79000   0.97166725     1.4440055      0.54953538     1.9935409    
     79500   0.91299519     1.3568123      0.73041117     2.0872235    
     80000   1.0211211      1.5174994      0.75995373     2.2774531    
     80500   1.0645934      1.5821041      0.736471       2.3185751    
     81000   1.13247        1.6829763      0.55560664     2.2385829    
     81500   1.1442339      1.7004587      0.58883664     2.2892954    
     82000   0.95843034     1.424334       0.59708123     2.0214152    
     82500   0.88369914     1.3132751      0.71105102     2.0243261    
     83000   0.95834845     1.4242123      0.61367197     2.0378843    
     83500   1.0501939      1.5607048      0.6650988      2.2258036    
     84000   1.0278701      1.5275292      0.66484223     2.1923714    
     84500   0.98970014     1.4708044      0.69517391     2.1659783    
     85000   0.98473454     1.4634249      0.64125313     2.1046781    
     85500   1.0160315      1.5099356      0.60220297     2.1121386    
     86000   1.0922529      1.6232092      0.60858623     2.2317955    
     86500   1.0421685      1.5487782      0.58746667     2.1362449    
     87000   0.98924951     1.4701347      0.73624565     2.2063803    
     87500   0.99705646     1.4817367      0.67498871     2.1567254    
     88000   0.94060222     1.3978394      0.600151       1.9979904    
     88500   0.96691228     1.4369391      0.65473036     2.0916694    
     89000   1.0134881      1.506156       0.56060451     2.0667605    
     89500   1.1972553      1.7792544      0.56707163     2.346326     
     90000   1.1399686      1.69412        0.76609622     2.4602162    
     90500   1.0285879      1.528596       0.60407802     2.132674     
     91000   0.93320286     1.3868431      0.49290717     1.8797503    
     91500   0.96965579     1.4410162      0.80374258     2.2447588    
     92000   1.0313724      1.532734       0.66114111     2.1938751    
     92500   0.98024188     1.4567484      0.57654494     2.0332933    
     93000   1.080533       1.6057921      0.61314064     2.2189327    
     93500   0.97043684     1.442177       0.58675218     2.0289292    
     94000   0.95451973     1.4185224      0.67227142     2.0907938    
     94500   1.1074675      1.6458198      0.62008829     2.2659081    
     95000   1.0150098      1.5084173      0.58463549     2.0930528    
     95500   1.0278774      1.52754        0.58847425     2.1160143    
     96000   1.0674644      1.5863706      0.64768892     2.2340596    
     96500   1.048966       1.55888        0.61578306     2.1746631    
     97000   1.0738667      1.5958852      0.72328539     2.3191706    
     97500   1.0060922      1.4951648      0.70199466     2.1971595    
     98000   0.88598012     1.3166649      0.62775447     1.9444194    
     98500   1.00598        1.4949981      0.47751219     1.9725103    
     99000   1.0202364      1.5161847      0.5460169      2.0622016    
     99500   0.92186351     1.3699916      0.6866347      2.0566263    
    100000   1.0363453      1.5401242      0.57514779     2.115272     
    100119   0.91985698     1.3670097      0.46980256     1.8368122    
Loop time of 1.0261 on 1 procs for 100000 steps with 108 atoms

Performance: 8420208.625 tau/day, 97456.118 timesteps/s, 10.525 Matom-step/s
124.4% CPU use with 1 MPI tasks x 1 OpenMP threads

MPI task timing breakdown:
Section |  min time  |  avg time  |  max time  |%varavg| %total
---------------------------------------------------------------
Pair    | 0.23951    | 0.23951    | 0.23951    |   0.0 | 23.34
Neigh   | 0.017774   | 0.017774   | 0.017774   |   0.0 |  1.73
Comm    | 0.19971    | 0.19971    | 0.19971    |   0.0 | 19.46
Output  | 0.0047421  | 0.0047421  | 0.0047421  |   0.0 |  0.46
Modify  | 0.53497    | 0.53497    | 0.53497    |   0.0 | 52.14
Other   |            | 0.02939    |            |       |  2.86

Nlocal:            108 ave         108 max         108 min
Histogram: 1 0 0 0 0 0 0 0 0 0
Nghost:            291 ave         291 max         291 min
Histogram: 1 0 0 0 0 0 0 0 0 0
Neighs:            734 ave         734 max         734 min
Histogram: 1 0 0 0 0 0 0 0 0 0

Total # of neighbors = 734
Ave neighs/atom = 6.7962963
Neighbor list builds = 264
Dangerous builds = 0

write_data data.${outfile} nocoeff nofix
write_data data.1708822984 nocoeff nofix
System init for write_data ...
Generated 0 of 0 mixed pair_coeff terms from geometric mixing rule
Total wall time: 0:00:01
