LAMMPS (21 Nov 2023)
OMP_NUM_THREADS environment is not set. Defaulting to 1 thread. (src/comm.cpp:98)
  using 1 OpenMP thread(s) per MPI task
###variable outfile string L15.17
###variable L equal 15.17

units lj

newton off
atom_style      sphere
boundary        p p p
comm_modify     mode single vel yes


region      boxid block 0.0     $L      0.0       $L      0.0       $L
region      boxid block 0.0     5.2094      0.0       $L      0.0       $L
region      boxid block 0.0     5.2094      0.0       5.2094      0.0       $L
region      boxid block 0.0     5.2094      0.0       5.2094      0.0       5.2094
#create_box  1 boxid
include create_box.in
create_box 1 boxid
Created orthogonal box = (0 0 0) to (5.2094 5.2094 5.2094)
  1 by 1 by 1 MPI processor grid


######
include create_np.in
create_atoms 1 random 108 6440 boxid
Created 108 atoms
  using lattice units in orthogonal box = (0 0 0) to (5.2094 5.2094 5.2094)
  create_atoms CPU = 0.000 seconds
velocity    all create 1.0 87287 dist gaussian

#####
include particles.in
set type 1 diameter 1.0
Setting atom values ...
  108 settings made for diameter
set type 1 mass 26.0
Setting atom values ...
  108 settings made for mass

###
fix 1 all langevin 1.0 1.0 0.1 12345
fix 2 all nve/sphere

###
pair_style lj/cut 1.
include pots_lj_lan.in
pair_coeff 1 1 10.0 1.0 1.122462048309373
pair_modify shift yes



minimize          1.0e-4 1.0e-6 1000 1000
Generated 0 of 0 mixed pair_coeff terms from geometric mixing rule
Neighbor list info ...
  update: every = 1 steps, delay = 0 steps, check = yes
  max neighbors/atom: 2000, page size: 100000
  master list distance cutoff = 1.422462
  ghost atom cutoff = 1.422462
  binsize = 0.71123102, bins = 8 8 8
  1 neighbor lists, perpetual/occasional/extra = 1 0 0
  (1) pair lj/cut, perpetual
      attributes: half, newton off
      pair build: half/bin/newtoff
      stencil: full/bin/3d
      bin: standard
Per MPI rank memory allocation (min/avg/max) = 5.453 | 5.453 | 5.453 Mbytes
   Step          Temp          E_pair         E_mol          TotEng         Press     
         0   49.656342      43448717       0              43448790       1.3278372e+08
        48   49.656342      0.040256705    0              73.835099      39.791914    
Loop time of 0.00331209 on 1 procs for 48 steps with 108 atoms

502.9% CPU use with 1 MPI tasks x 1 OpenMP threads

Minimization stats:
  Stopping criterion = energy tolerance
  Energy initial, next-to-last, final = 
      43448716.6954979 0.0402584789239446 0.0402567047402015
  Force two-norm initial, final = 2.1532947e+11 81.740144
  Force max component initial, final = 1.0178288e+11 23.17385
  Final line search alpha, max atom move = 3.488066e-05 0.00080831919
  Iterations, force evaluations = 48 131

MPI task timing breakdown:
Section |  min time  |  avg time  |  max time  |%varavg| %total
---------------------------------------------------------------
Pair    | 0.001104   | 0.001104   | 0.001104   |   0.0 | 33.33
Neigh   | 0.0013566  | 0.0013566  | 0.0013566  |   0.0 | 40.96
Comm    | 0.00054214 | 0.00054214 | 0.00054214 |   0.0 | 16.37
Output  | 0          | 0          | 0          |   0.0 |  0.00
Modify  | 0          | 0          | 0          |   0.0 |  0.00
Other   |            | 0.0003094  |            |       |  9.34

Nlocal:            108 ave         108 max         108 min
Histogram: 1 0 0 0 0 0 0 0 0 0
Nghost:            298 ave         298 max         298 min
Histogram: 1 0 0 0 0 0 0 0 0 0
Neighs:            689 ave         689 max         689 min
Histogram: 1 0 0 0 0 0 0 0 0 0

Total # of neighbors = 689
Ave neighs/atom = 6.3796296
Neighbor list builds = 16
Dangerous builds = 0

thermo_style custom step temp ke pe etotal
thermo 500
timestep 0.001
#dump    id all custom 5000 out_lan_${outfile}.lammpstrj id type radius mass xu yu zu vx vy vz fx fy fz
dump    id all custom 5000 out_lan_${outfile}.lammpstrj id type radius mass x y z
dump    id all custom 5000 out_lan_1708719809.lammpstrj id type radius mass x y z
run 100000
Generated 0 of 0 mixed pair_coeff terms from geometric mixing rule
Per MPI rank memory allocation (min/avg/max) = 4.328 | 4.328 | 4.328 Mbytes
   Step          Temp          KinEng         PotEng         TotEng    
        48   49.656342      73.794842      0.040256705    73.835099    
       500   1.2317696      1.8305465      1.6728639      3.5034104    
      1000   1.1737612      1.7443396      1.2297372      2.9740767    
      1500   0.99564683     1.4796418      1.2887514      2.7683932    
      2000   0.9281221      1.3792926      1.1363491      2.5156417    
      2500   1.0227627      1.5199391      1.0561085      2.5760476    
      3000   0.91915723     1.3659698      0.85763396     2.2236037    
      3500   0.9296149      1.381511       0.91162658     2.2931376    
      4000   0.94940246     1.4109175      1.0266219      2.4375395    
      4500   0.98245836     1.4600423      1.0430999      2.5031422    
      5000   0.94265855     1.4008953      1.0782239      2.4791193    
      5500   1.1053383      1.6426555      0.96922532     2.6118808    
      6000   1.0453494      1.5535054      0.7509988      2.3045042    
      6500   1.0823527      1.6084964      0.84756437     2.4560607    
      7000   1.0162183      1.5102133      1.0709871      2.5812004    
      7500   0.89748253     1.3337588      0.95405123     2.28781      
      8000   1.1353552      1.687264       0.85770654     2.5449705    
      8500   1.1220835      1.6675407      0.75284781     2.4203885    
      9000   0.89880613     1.3357258      0.84604442     2.1817702    
      9500   0.9299478      1.3820058      0.81515743     2.1971632    
     10000   1.1345063      1.6860025      0.85146284     2.5374653    
     10500   0.92918218     1.380868       0.74262833     2.1234963    
     11000   1.031101       1.5323307      0.83259657     2.3649273    
     11500   0.99037109     1.4718015      0.82515816     2.2969596    
     12000   0.91312576     1.3570063      0.7329641      2.0899704    
     12500   0.93590751     1.3908626      0.87303867     2.2639012    
     13000   1.0400113      1.5455724      0.68331087     2.2288832    
     13500   1.140587       1.695039       0.70445562     2.3994946    
     14000   1.0098582      1.5007614      0.74835154     2.249113     
     14500   1.0406569      1.5465318      0.71465486     2.2611867    
     15000   1.0783632      1.6025675      0.90546806     2.5080356    
     15500   0.95561135     1.4201446      0.72121474     2.1413594    
     16000   0.96889108     1.4398798      0.69083276     2.1307126    
     16500   1.0469426      1.5558731      0.76502667     2.3208997    
     17000   0.83547372     1.2416068      0.6015391      1.8431459    
     17500   0.94990166     1.4116594      0.55694316     1.9686026    
     18000   0.94833728     1.4093346      0.77962644     2.188961     
     18500   1.0158534      1.509671       0.67053258     2.1802036    
     19000   1.0106538      1.5019438      0.61660569     2.1185495    
     19500   1.0300374      1.5307501      0.81628966     2.3470397    
     20000   0.90489413     1.3447732      0.83593178     2.180705     
     20500   0.9653462      1.4346117      0.8542947      2.2889064    
     21000   0.93197582     1.3850196      0.81020017     2.1952198    
     21500   0.9900961      1.4713928      0.91521909     2.3866119    
     22000   0.91216368     1.3555766      0.80831633     2.1638929    
     22500   0.88809044     1.3198011      0.70385575     2.0236568    
     23000   1.0569051      1.5706784      0.80650543     2.3771838    
     23500   1.0037164      1.4916342      0.84260338     2.3342375    
     24000   1.0340912      1.5367744      0.85972966     2.3965041    
     24500   0.88907026     1.3212572      0.77815238     2.0994096    
     25000   0.95103906     1.4133497      0.72430348     2.1376532    
     25500   1.0570265      1.5708588      0.61026704     2.1811258    
     26000   1.02314        1.5204998      0.67577979     2.1962796    
     26500   1.0289875      1.5291897      0.51784554     2.0470352    
     27000   0.96906587     1.4401396      0.64345855     2.0835981    
     27500   1.0392265      1.544406       0.72862314     2.2730292    
     28000   1.0591307      1.5739859      0.65758445     2.2315704    
     28500   1.0162013      1.510188       0.60646702     2.116655     
     29000   0.98376658     1.4619864      0.63088405     2.0928705    
     29500   1.0749219      1.5974534      0.69839947     2.2958528    
     30000   0.97706487     1.452027       0.71044853     2.1624755    
     30500   1.0428         1.5497166      0.70747547     2.2571921    
     31000   1.0423511      1.5490495      0.6481272      2.1971767    
     31500   0.96788698     1.4383876      0.69413068     2.1325183    
     32000   1.0293134      1.529674       0.5870643      2.1167383    
     32500   0.89194482     1.3255291      0.65755703     1.9830861    
     33000   1.1377956      1.6908907      0.60521258     2.2961033    
     33500   1.031528       1.5329652      0.71779923     2.2507645    
     34000   1.1346579      1.6862278      0.54879024     2.235018     
     34500   1.0867186      1.6149846      0.55475134     2.1697359    
     35000   1.1203811      1.6650107      0.55955786     2.2245686    
     35500   1.0520489      1.5634616      0.91691705     2.4803787    
     36000   1.0431181      1.5501895      0.63370979     2.1838992    
     36500   1.0776763      1.6015467      0.65421099     2.2557577    
     37000   0.91815255     1.3644767      0.73127256     2.0957493    
     37500   0.87598649     1.3018133      0.70971436     2.0115276    
     38000   0.89664382     1.3325123      0.62901451     1.9615268    
     38500   0.9320261      1.3850943      0.68987413     2.0749685    
     39000   1.0041049      1.4922114      0.61788757     2.110099     
     39500   1.0931746      1.6245789      0.59299097     2.2175698    
     40000   0.94694971     1.4072725      0.77674065     2.1840131    
     40500   0.99976698     1.4857648      0.67846237     2.1642272    
     41000   0.97516833     1.4492085      0.69701964     2.1462281    
     41500   0.99229614     1.4746623      0.59696512     2.0716274    
     42000   1.1207164      1.6655092      0.62999673     2.2955059    
     42500   0.98636847     1.4658531      0.55184105     2.0176942    
     43000   0.86924335     1.2917922      0.48705608     1.7788483    
     43500   1.0039261      1.4919458      0.54473653     2.0366823    
     44000   1.1227868      1.668586       0.59768157     2.2662675    
     44500   0.95363893     1.4172134      0.73063381     2.1478472    
     45000   1.2375893      1.8391952      0.61064213     2.4498374    
     45500   0.99944578     1.4852875      0.6066757      2.0919632    
     46000   0.98194995     1.4592867      0.57074689     2.0300336    
     46500   1.0611878      1.577043       0.7862949      2.3633379    
     47000   1.0850517      1.6125075      0.62190383     2.2344113    
     47500   1.1780691      1.7507415      0.63643289     2.3871744    
     48000   0.94067751     1.3979513      0.71710852     2.1150598    
     48500   1.0624877      1.5789748      0.66396236     2.2429371    
     49000   1.0335805      1.5360154      0.5371789      2.0731943    
     49500   0.96031754     1.4271386      0.660438       2.0875766    
     50000   0.88475482     1.314844       0.75916157     2.0740055    
     50500   1.0158292      1.5096351      0.69573322     2.2053683    
     51000   0.98163806     1.4588232      0.63778207     2.0966053    
     51500   1.1428293      1.6983714      0.65364423     2.3520156    
     52000   1.0032505      1.4909417      0.66940036     2.160342     
     52500   0.96552157     1.4348723      0.66595808     2.1008304    
     53000   0.91848812     1.3649754      0.75449669     2.1194721    
     53500   1.0745986      1.596973       0.68287306     2.279846     
     54000   1.192177       1.7717074      0.57204457     2.343752     
     54500   1.0112718      1.5028622      0.58778411     2.0906463    
     55000   0.98362574     1.4617771      0.64575712     2.1075343    
     55500   1.0677454      1.5867882      0.65229804     2.2390863    
     56000   0.98292623     1.4607376      0.8379622      2.2986998    
     56500   1.0009115      1.4874658      0.72875215     2.2162179    
     57000   0.95949534     1.4259167      0.9727961      2.3987128    
     57500   1.0466174      1.5553898      0.79269256     2.3480824    
     58000   1.0130546      1.5055117      0.70408799     2.2095997    
     58500   0.99534939     1.4791998      0.71852061     2.1977204    
     59000   1.0201999      1.5161305      0.61824659     2.1343771    
     59500   0.96050482     1.4274169      0.54532525     1.9727421    
     60000   0.91287672     1.3566362      0.63397176     1.990608     
     60500   0.96359272     1.4320059      0.51215096     1.9441568    
     61000   1.0037782      1.4917259      0.59923574     2.0909617    
     61500   0.9244135      1.3737812      0.59531606     1.9690972    
     62000   1.1294561      1.6784972      0.55333457     2.2318318    
     62500   0.87847164     1.3055065      0.6732612      1.9787677    
     63000   0.9021069      1.3406311      0.662794       2.0034251    
     63500   0.97618291     1.4507163      0.66440326     2.1151195    
     64000   1.1090564      1.6481811      0.62218676     2.2703679    
     64500   1.0757749      1.598721       0.61629195     2.2150129    
     65000   1.0833808      1.6100242      0.49199393     2.1020181    
     65500   1.0378305      1.5423314      0.74557236     2.2879038    
     66000   1.008148       1.4982199      0.82544446     2.3236644    
     66500   1.0992401      1.6335929      0.63174505     2.265338     
     67000   1.115794       1.6581939      0.78722711     2.445421     
     67500   1.079066       1.603612       0.59871551     2.2023275    
     68000   0.95027455     1.4122136      0.59830557     2.0105191    
     68500   0.99798071     1.4831102      0.6979414      2.1810516    
     69000   0.97888397     1.4547303      0.58826676     2.0429971    
     69500   1.0995301      1.6340238      0.67034929     2.3043731    
     70000   1.0525123      1.5641502      0.75358801     2.3177382    
     70500   1.0283193      1.5281968      0.56466529     2.0928621    
     71000   0.89251178     1.3263717      0.60442174     1.9307934    
     71500   1.0661732      1.5844518      0.70695643     2.2914083    
     72000   0.98037473     1.4569458      0.48342044     1.9403662    
     72500   0.9541022      1.4179019      0.69148976     2.1093916    
     73000   0.95861886     1.4246141      0.60923222     2.0338464    
     73500   1.0032876      1.4909969      0.65702363     2.1480205    
     74000   0.88928009     1.321569       0.67836085     1.9999299    
     74500   0.99691679     1.4815291      0.54660164     2.0281308    
     75000   0.96276605     1.4307773      0.51547174     1.9462491    
     75500   0.94216906     1.4001679      0.64079625     2.0409642    
     76000   0.94515418     1.4046041      0.69894712     2.1035512    
     76500   1.0970305      1.6303092      0.67290876     2.3032179    
     77000   1.0625496      1.5790667      0.55507844     2.1341452    
     77500   0.93753974     1.3932882      0.52705817     1.9203464    
     78000   0.95913669     1.4253837      0.61645196     2.0418357    
     78500   1.0901463      1.6200785      0.62549353     2.245572     
     79000   1.0099924      1.5009609      0.48838615     1.989347     
     79500   1.2157054      1.8066733      0.59081801     2.3974913    
     80000   0.92375659     1.3728049      0.68463799     2.0574429    
     80500   1.0090575      1.4995716      0.76674921     2.2663208    
     81000   1.1070949      1.645266       0.640243       2.285509     
     81500   1.0396164      1.5449854      0.70876048     2.2537459    
     82000   0.97357803     1.4468451      0.62419049     2.0710356    
     82500   1.051501       1.5626473      0.7685289      2.3311762    
     83000   0.93577493     1.3906655      0.64852808     2.0391936    
     83500   0.91621015     1.3615901      0.52881369     1.8904038    
     84000   0.99256513     1.4750621      0.58268092     2.057743     
     84500   1.0356691      1.5391194      0.849451       2.3885704    
     85000   1.0253656      1.5238072      0.57201978     2.095827     
     85500   0.97632381     1.4509257      0.64968711     2.1006128    
     86000   1.0432421      1.5503737      0.69436123     2.244735     
     86500   1.0353111      1.5385874      0.61656701     2.1551544    
     87000   0.92610029     1.3762879      0.8551549      2.2314428    
     87500   1.214168       1.8043886      0.69060062     2.4949892    
     88000   1.0035374      1.4913681      0.65450772     2.1458758    
     88500   0.99915617     1.4848571      0.59646535     2.0813224    
     89000   0.87389977     1.2987122      0.7713097      2.0700219    
     89500   0.945743       1.4054792      0.73136247     2.1368417    
     90000   1.0263736      1.5253052      0.71835346     2.2436587    
     90500   1.0221203      1.5189843      0.62917352     2.1481578    
     91000   1.0485733      1.5582965      0.54122565     2.0995221    
     91500   0.91113456     1.3540472      0.75032484     2.104372     
     92000   1.1412815      1.6960712      0.71058829     2.4066595    
     92500   0.96068749     1.4276884      0.44971163     1.8774       
     93000   1.0429588      1.5499527      0.62038933     2.170342     
     93500   1.0201117      1.5159993      0.66963678     2.1856361    
     94000   0.97888384     1.4547301      0.69297137     2.1477015    
     94500   1.0133182      1.5059035      0.59133027     2.0972338    
     95000   0.95360852     1.4171682      0.69716961     2.1143378    
     95500   1.0315566      1.5330077      0.67211056     2.2051183    
     96000   1.1081752      1.6468715      0.69987141     2.3467429    
     96500   0.88396057     1.3136636      0.76354381     2.0772074    
     97000   0.99315425     1.4759376      0.92527876     2.4012163    
     97500   1.0050338      1.4935919      0.69759424     2.1911862    
     98000   0.82686472     1.2288128      0.55859969     1.7874125    
     98500   0.99815054     1.4833626      0.51995746     2.0033201    
     99000   1.0379229      1.5424688      0.59922534     2.1416942    
     99500   1.0757404      1.5986697      0.6241614      2.2228311    
    100000   0.81866526     1.2166275      0.53283212     1.7494597    
    100048   0.89476483     1.32972        0.51449303     1.844213     
Loop time of 1.11047 on 1 procs for 100000 steps with 108 atoms

Performance: 7780488.060 tau/day, 90051.945 timesteps/s, 9.726 Matom-step/s
114.1% CPU use with 1 MPI tasks x 1 OpenMP threads

MPI task timing breakdown:
Section |  min time  |  avg time  |  max time  |%varavg| %total
---------------------------------------------------------------
Pair    | 0.24128    | 0.24128    | 0.24128    |   0.0 | 21.73
Neigh   | 0.017623   | 0.017623   | 0.017623   |   0.0 |  1.59
Comm    | 0.20391    | 0.20391    | 0.20391    |   0.0 | 18.36
Output  | 0.0057788  | 0.0057788  | 0.0057788  |   0.0 |  0.52
Modify  | 0.61081    | 0.61081    | 0.61081    |   0.0 | 55.00
Other   |            | 0.03106    |            |       |  2.80

Nlocal:            108 ave         108 max         108 min
Histogram: 1 0 0 0 0 0 0 0 0 0
Nghost:            280 ave         280 max         280 min
Histogram: 1 0 0 0 0 0 0 0 0 0
Neighs:            713 ave         713 max         713 min
Histogram: 1 0 0 0 0 0 0 0 0 0

Total # of neighbors = 713
Ave neighs/atom = 6.6018519
Neighbor list builds = 263
Dangerous builds = 0

write_data data.${outfile} nocoeff nofix
write_data data.1708719809 nocoeff nofix
System init for write_data ...
Generated 0 of 0 mixed pair_coeff terms from geometric mixing rule
Total wall time: 0:00:01
