LAMMPS (21 Nov 2023)
OMP_NUM_THREADS environment is not set. Defaulting to 1 thread. (src/comm.cpp:98)
  using 1 OpenMP thread(s) per MPI task
###variable outfile string L15.17
###variable L equal 15.17

units lj

newton off
atom_style      sphere
boundary        p p p
comm_modify     mode single vel yes


region      boxid block 0.0     $L      0.0       $L      0.0       $L
region      boxid block 0.0     5.446507564509587      0.0       $L      0.0       $L
region      boxid block 0.0     5.446507564509587      0.0       5.446507564509587      0.0       $L
region      boxid block 0.0     5.446507564509587      0.0       5.446507564509587      0.0       5.446507564509587
#create_box  1 boxid
include create_box.in
create_box 1 boxid
Created orthogonal box = (0 0 0) to (5.4465076 5.4465076 5.4465076)
  1 by 1 by 1 MPI processor grid


######
include create_np.in
create_atoms 1 random 108 6474 boxid
Created 108 atoms
  using lattice units in orthogonal box = (0 0 0) to (5.4465076 5.4465076 5.4465076)
  create_atoms CPU = 0.001 seconds
velocity    all create 1.0 87287 dist gaussian

#####
include particles.in
set type 1 diameter 1.0
Setting atom values ...
  108 settings made for diameter
set type 1 mass 26.0
Setting atom values ...
  108 settings made for mass

###
fix 1 all langevin 1.0 1.0 0.1 12345
fix 2 all nve/sphere

###
pair_style lj/cut 1.
include pots_lj_lan.in
pair_coeff 1 1 10.0 1.0 1.122462048309373
pair_modify shift yes



minimize          1.0e-4 1.0e-6 1000 1000
Generated 0 of 0 mixed pair_coeff terms from geometric mixing rule
Neighbor list info ...
  update: every = 1 steps, delay = 0 steps, check = yes
  max neighbors/atom: 2000, page size: 100000
  master list distance cutoff = 1.422462
  ghost atom cutoff = 1.422462
  binsize = 0.71123102, bins = 8 8 8
  1 neighbor lists, perpetual/occasional/extra = 1 0 0
  (1) pair lj/cut, perpetual
      attributes: half, newton off
      pair build: half/bin/newtoff
      stencil: full/bin/3d
      bin: standard
Per MPI rank memory allocation (min/avg/max) = 5.453 | 5.453 | 5.453 Mbytes
   Step          Temp          E_pair         E_mol          TotEng         Press     
         0   49.656342      4.8249933e+08  0              4.8249941e+08  1.2901313e+09
        59   49.656342      6.0497686e-10  0              73.794842      32.885504    
Loop time of 0.00489966 on 1 procs for 59 steps with 108 atoms

507.7% CPU use with 1 MPI tasks x 1 OpenMP threads

Minimization stats:
  Stopping criterion = linesearch alpha is zero
  Energy initial, next-to-last, final = 
       482499331.93829 6.04976858732521e-10 6.04976858732521e-10
  Force two-norm initial, final = 4.9103047e+12 0.012222021
  Force max component initial, final = 2.6765294e+12 0.008284843
  Final line search alpha, max atom move = 0.0078125 6.4725336e-05
  Iterations, force evaluations = 59 284

MPI task timing breakdown:
Section |  min time  |  avg time  |  max time  |%varavg| %total
---------------------------------------------------------------
Pair    | 0.0015101  | 0.0015101  | 0.0015101  |   0.0 | 30.82
Neigh   | 0.0017127  | 0.0017127  | 0.0017127  |   0.0 | 34.96
Comm    | 0.0011354  | 0.0011354  | 0.0011354  |   0.0 | 23.17
Output  | 0          | 0          | 0          |   0.0 |  0.00
Modify  | 0          | 0          | 0          |   0.0 |  0.00
Other   |            | 0.0005414  |            |       | 11.05

Nlocal:            108 ave         108 max         108 min
Histogram: 1 0 0 0 0 0 0 0 0 0
Nghost:            277 ave         277 max         277 min
Histogram: 1 0 0 0 0 0 0 0 0 0
Neighs:            575 ave         575 max         575 min
Histogram: 1 0 0 0 0 0 0 0 0 0

Total # of neighbors = 575
Ave neighs/atom = 5.3240741
Neighbor list builds = 20
Dangerous builds = 0

thermo_style custom step temp ke pe etotal
thermo 500
timestep 0.001
#dump    id all custom 5000 out_lan_${outfile}.lammpstrj id type radius mass xu yu zu vx vy vz fx fy fz
dump    id all custom 5000 out_lan_${outfile}.lammpstrj id type radius mass x y z
dump    id all custom 5000 out_lan_1708804647.lammpstrj id type radius mass x y z
run 100000
Generated 0 of 0 mixed pair_coeff terms from geometric mixing rule
Per MPI rank memory allocation (min/avg/max) = 4.328 | 4.328 | 4.328 Mbytes
   Step          Temp          KinEng         PotEng         TotEng    
        59   49.656342      73.794842      6.0497686e-10  73.794842    
       500   1.3010327      1.9334792      0.79117574     2.7246549    
      1000   1.1073105      1.6455865      0.58767277     2.2332592    
      1500   1.0444811      1.5522149      0.62485766     2.1770726    
      2000   0.9354936      1.3902474      0.46306175     1.8533092    
      2500   1.0507417      1.5615189      0.53718796     2.0987068    
      3000   0.82563308     1.2269825      0.58027434     1.8072568    
      3500   0.95283415     1.4160174      0.36632229     1.7823397    
      4000   0.99864616     1.4840992      0.4636513      1.9477504    
      4500   0.97994487     1.456307       0.52629786     1.9826048    
      5000   0.95798688     1.423675       0.49941905     1.923094     
      5500   1.1320192      1.6823063      0.56084656     2.2431528    
      6000   1.0411844      1.5473157      0.43316773     1.9804834    
      6500   1.08467        1.6119401      0.41453848     2.0264785    
      7000   1.1612077      1.7256836      0.46843023     2.1941139    
      7500   1.0013665      1.4881418      0.45396608     1.9421079    
      8000   0.95646451     1.4214125      0.5154971      1.9369096    
      8500   0.99058628     1.4721213      0.41118544     1.8833067    
      9000   0.89279232     1.3267886      0.47070656     1.7974951    
      9500   0.94150191     1.3991765      0.46865446     1.8678309    
     10000   1.03402        1.5366686      0.41729417     1.9539628    
     10500   1.0098271      1.5007153      0.50081213     2.0015274    
     11000   1.0078862      1.4978308      0.37762116     1.875452     
     11500   1.0048909      1.4933796      0.558803       2.0521826    
     12000   0.96024388     1.4270291      0.47419006     1.9012192    
     12500   1.0863616      1.614454       0.3780355      1.9924895    
     13000   1.073452       1.595269       0.34335813     1.9386271    
     13500   1.1622615      1.7272497      0.49740271     2.2246524    
     14000   1.0122803      1.504361       0.43195443     1.9363154    
     14500   1.0865746      1.6147706      0.36776817     1.9825388    
     15000   1.0182882      1.5132894      0.61695818     2.1302476    
     15500   0.9619101      1.4295053      0.40998516     1.8394904    
     16000   0.99589484     1.4800104      0.39414054     1.8741509    
     16500   1.0837466      1.6105679      0.33960594     1.9501738    
     17000   0.96909172     1.440178       0.26401193     1.7041899    
     17500   0.94469075     1.4039154      0.3307014      1.7346168    
     18000   1.097034       1.6303144      0.40141116     2.0317255    
     18500   1.0044129      1.4926692      0.4222163      1.9148855    
     19000   1.0230037      1.5202972      0.45683084     1.977128     
     19500   1.0083409      1.4985065      0.42847737     1.9269839    
     20000   0.95433079     1.4182416      0.32102628     1.7392679    
     20500   1.0060892      1.4951604      0.50693538     2.0020957    
     21000   0.9361598      1.3912375      0.2730943      1.6643318    
     21500   0.94675387     1.4069814      0.38529922     1.7922807    
     22000   0.86457221     1.2848504      0.49731321     1.7821636    
     22500   0.97114953     1.4432361      0.41181377     1.8550499    
     23000   1.0352164      1.5384466      0.43423078     1.9726774    
     23500   1.0699192      1.5900188      0.43742191     2.0274407    
     24000   1.0587594      1.573434       0.44955816     2.0229922    
     24500   0.85545412     1.2712999      0.46842581     1.7397257    
     25000   0.96024203     1.4270264      0.42277653     1.8498029    
     25500   1.0083603      1.4985354      0.45867911     1.9572145    
     26000   1.0933937      1.6249045      0.41205857     2.036963     
     26500   1.0240815      1.5218989      0.34511092     1.8670099    
     27000   0.95574037     1.4203364      0.30812128     1.7284577    
     27500   1.2015896      1.7856957      0.30293007     2.0886257    
     28000   1.0870787      1.6155198      0.28753077     1.9030505    
     28500   0.92892459     1.3804852      0.45314241     1.8336276    
     29000   1.0126506      1.5049113      0.39394376     1.898855     
     29500   0.98758184     1.4676564      0.59388112     2.0615375    
     30000   1.0799427      1.6049149      0.40938397     2.0142989    
     30500   1.0368378      1.5408561      0.40572309     1.9465792    
     31000   0.91364227     1.3577739      0.66940451     2.0271784    
     31500   0.9880235      1.4683127      0.38662418     1.8549369    
     32000   0.98932325     1.4702443      0.46177683     1.9320211    
     32500   0.83883664     1.2466045      0.37458913     1.6211936    
     33000   1.0663643      1.5847359      0.5119882      2.0967241    
     33500   1.1400143      1.6941879      0.35005986     2.0442477    
     34000   1.1778413      1.7504031      0.29876091     2.049164     
     34500   1.0073969      1.4971038      0.47471497     1.9718187    
     35000   1.0954378      1.6279422      0.36409636     1.9920386    
     35500   0.98116278     1.4581169      0.48658476     1.9447017    
     36000   0.99180184     1.4739277      0.3414241      1.8153518    
     36500   1.0049888      1.4935251      0.46694449     1.9604696    
     37000   0.93906726     1.3955583      0.387395       1.7829533    
     37500   0.93565087     1.3904812      0.32602249     1.7165036    
     38000   0.88897464     1.3211151      0.33911885     1.6602339    
     38500   1.0316228      1.5331061      0.39191844     1.9250246    
     39000   1.0097314      1.500573       0.36034057     1.8609136    
     39500   1.0539237      1.5662477      0.49576709     2.0620148    
     40000   0.95232387     1.4152591      0.40816568     1.8234248    
     40500   1.0139318      1.5068152      0.45005892     1.9568742    
     41000   1.0295115      1.5299685      0.3839786      1.9139471    
     41500   0.9630324      1.4311731      0.31780906     1.7489822    
     42000   1.0220458      1.5188736      0.38398151     1.9028551    
     42500   0.89500157     1.3300718      0.37717829     1.7072501    
     43000   0.95283581     1.4160199      0.34625394     1.7622738    
     43500   0.98868221     1.4692916      0.39760371     1.8668953    
     44000   1.0054947      1.4942769      0.40265513     1.896932     
     44500   0.96200713     1.4296495      0.46941582     1.8990653    
     45000   1.1565319      1.7187349      0.45719499     2.1759298    
     45500   0.90656014     1.3472491      0.46179028     1.8090394    
     46000   0.95796016     1.4236352      0.35918102     1.7828163    
     46500   1.0695885      1.5895273      0.48042306     2.0699504    
     47000   1.1145259      1.6563093      0.46110159     2.1174109    
     47500   1.0254443      1.5239242      0.53502811     2.0589523    
     48000   0.99661711     1.4810838      0.40441681     1.8855006    
     48500   1.0276752      1.5272395      0.34252163     1.8697612    
     49000   1.006592       1.4959075      0.28273565     1.7786432    
     49500   1.0009276      1.4874896      0.42119949     1.9086891    
     50000   0.96042076     1.427292       0.37746206     1.804754     
     50500   0.99705179     1.4817297      0.38320868     1.8649384    
     51000   0.9388514      1.3952375      0.3968983      1.7921358    
     51500   1.0702605      1.590526       0.34331052     1.9338365    
     52000   0.9192345      1.3660846      0.39301342     1.759098     
     52500   0.99571873     1.4797487      0.35542198     1.8351706    
     53000   1.0081214      1.4981805      0.44721524     1.9453957    
     53500   1.0319678      1.5336189      0.3531655      1.8867844    
     54000   1.0960014      1.6287799      0.29573542     1.9245153    
     54500   1.014851       1.5081814      0.31182289     1.8200043    
     55000   0.96540002     1.4346917      0.36425225     1.7989439    
     55500   1.1086895      1.6476358      0.35131647     1.9989523    
     56000   0.94502826     1.404417       0.36379557     1.7682126    
     56500   1.0178411      1.512625       0.40466933     1.9172943    
     57000   1.1282379      1.6766869      0.4205632      2.0972501    
     57500   1.0508841      1.5617306      0.55238718     2.1141177    
     58000   0.96699653     1.4370643      0.43863633     1.8757006    
     58500   0.91929706     1.3661776      0.41161988     1.7777975    
     59000   0.93846297     1.3946603      0.4488736      1.8435338    
     59500   0.89973064     1.3370997      0.46758757     1.8046873    
     60000   0.92629388     1.3765756      0.4902581      1.8668337    
     60500   0.88015501     1.3080081      0.44737327     1.7553814    
     61000   1.1206977      1.6654813      0.3706255      2.0361068    
     61500   1.0440608      1.5515903      0.49743747     2.0490278    
     62000   1.11947        1.6636568      0.46288933     2.1265461    
     62500   1.0569427      1.5707343      0.40380419     1.9745385    
     63000   0.91020506     1.3526659      0.31149311     1.664159     
     63500   1.0242883      1.5222062      0.3876066      1.9098128    
     64000   1.0663323      1.5846883      0.45675073     2.041439     
     64500   0.92543428     1.3752982      0.55162478     1.9269229    
     65000   1.000207       1.4864187      0.43647023     1.9228889    
     65500   1.1377558      1.6908315      0.62831684     2.3191483    
     66000   1.00617        1.4952804      0.43053539     1.9258158    
     66500   1.0013266      1.4880826      0.33468746     1.8227701    
     67000   1.0339042      1.5364965      0.47500732     2.0115038    
     67500   1.0142328      1.5072626      0.51507576     2.0223383    
     68000   0.90021651     1.3378218      0.38687905     1.7247008    
     68500   1.0214329      1.5179628      0.59170033     2.1096631    
     69000   1.0072494      1.4968845      0.41914788     1.9160324    
     69500   1.0019933      1.4890733      0.38632434     1.8753977    
     70000   1.0467632      1.5556065      0.40798709     1.9635936    
     70500   0.92961086     1.381505       0.4961587      1.8776637    
     71000   0.91978544     1.3669034      0.41943114     1.7863345    
     71500   1.0227849      1.5199721      0.36587463     1.8858467    
     72000   0.91965942     1.3667161      0.33039303     1.6971091    
     72500   0.91748792     1.363489       0.37395937     1.7374484    
     73000   0.85977668     1.2777237      0.44665279     1.7243765    
     73500   1.0427491      1.549641       0.43611721     1.9857582    
     74000   1.0240907      1.5219126      0.37664231     1.8985549    
     74500   0.99830009     1.4835849      0.44278635     1.9263712    
     75000   0.9652404      1.4344545      0.34471527     1.7791698    
     75500   0.93987173     1.3967538      0.46409867     1.8608525    
     76000   0.91857976     1.3651116      0.35137033     1.7164819    
     76500   1.1560214      1.7179762      0.3647208      2.082697     
     77000   1.0498659      1.5602173      0.37918347     1.9394008    
     77500   0.93374042     1.387642       0.44344282     1.8310848    
     78000   1.0600847      1.5754036      0.41315539     1.988559     
     78500   1.0520361      1.5634425      0.36418287     1.9276254    
     79000   1.0137236      1.5065059      0.31350535     1.8200112    
     79500   1.1889888      1.7669694      0.41153732     2.1785068    
     80000   0.97364916     1.4469508      0.40138154     1.8483324    
     80500   1.0370618      1.541189       0.4381204      1.9793094    
     81000   1.0415811      1.5479052      0.41273406     1.9606392    
     81500   1.113271       1.6544445      0.34353928     1.9979838    
     82000   1.0437771      1.5511687      0.35310155     1.9042702    
     82500   1.1136339      1.6549837      0.43150445     2.0864881    
     83000   0.8300407      1.2335327      0.30682377     1.5403565    
     83500   1.0706009      1.5910319      0.39108777     1.9821197    
     84000   0.9643072      1.4330676      0.41510368     1.8481713    
     84500   1.159133       1.7226005      0.4458742      2.1684747    
     85000   1.0401844      1.5458297      0.37107323     1.9169029    
     85500   0.94953729     1.4111179      0.38801556     1.7991335    
     86000   1.0830347      1.6095098      0.52678955     2.1362994    
     86500   1.0702829      1.5905593      0.29896053     1.8895199    
     87000   0.98281812     1.4605769      0.44426355     1.9048405    
     87500   1.2074712      1.7944363      0.44336528     2.2378016    
     88000   0.93635199     1.3915231      0.39048365     1.7820068    
     88500   1.011404       1.5030587      0.30727539     1.8103341    
     89000   0.95645797     1.4214028      0.36559801     1.7870008    
     89500   0.9169936      1.3627544      0.30958213     1.6723365    
     90000   1.1056569      1.643129       0.39382676     2.0369557    
     90500   1.0477433      1.557063       0.40517295     1.962236     
     91000   0.81609512     1.212808       0.36624768     1.5790557    
     91500   0.93822783     1.3943108      0.48381568     1.8781265    
     92000   1.09414        1.6260137      0.37298537     1.9989991    
     92500   0.87420998     1.2991732      0.35591666     1.6550898    
     93000   1.070298       1.5905817      0.44270763     2.0332894    
     93500   1.0392934      1.5445054      0.38366185     1.9281672    
     94000   1.0186756      1.5138651      0.43461262     1.9484777    
     94500   1.1378976      1.6910423      0.40697751     2.0980198    
     95000   1.0169971      1.5113707      0.38924237     1.9006131    
     95500   1.0775701      1.6013889      0.48228127     2.0836702    
     96000   0.97443529     1.4481191      0.4963699      1.944489     
     96500   0.89447093     1.3292832      0.39327685     1.72256      
     97000   1.0204348      1.5164795      0.47511879     1.9915983    
     97500   1.0218126      1.5185271      0.53370629     2.0522334    
     98000   0.81417658     1.2099569      0.40894298     1.6188998    
     98500   0.98807946     1.4683959      0.41735324     1.8857491    
     99000   0.97707308     1.4520392      0.39311987     1.845159     
     99500   1.0316155      1.5330952      0.36690883     1.900004     
    100000   0.9030739      1.3420682      0.3765546      1.7186228    
    100059   0.90044611     1.338163       0.36285546     1.7010184    
Loop time of 1.19029 on 1 procs for 100000 steps with 108 atoms

Performance: 7258714.227 tau/day, 84012.896 timesteps/s, 9.073 Matom-step/s
112.3% CPU use with 1 MPI tasks x 1 OpenMP threads

MPI task timing breakdown:
Section |  min time  |  avg time  |  max time  |%varavg| %total
---------------------------------------------------------------
Pair    | 0.24045    | 0.24045    | 0.24045    |   0.0 | 20.20
Neigh   | 0.022107   | 0.022107   | 0.022107   |   0.0 |  1.86
Comm    | 0.24094    | 0.24094    | 0.24094    |   0.0 | 20.24
Output  | 0.0087884  | 0.0087884  | 0.0087884  |   0.0 |  0.74
Modify  | 0.63835    | 0.63835    | 0.63835    |   0.0 | 53.63
Other   |            | 0.03965    |            |       |  3.33

Nlocal:            108 ave         108 max         108 min
Histogram: 1 0 0 0 0 0 0 0 0 0
Nghost:            260 ave         260 max         260 min
Histogram: 1 0 0 0 0 0 0 0 0 0
Neighs:            607 ave         607 max         607 min
Histogram: 1 0 0 0 0 0 0 0 0 0

Total # of neighbors = 607
Ave neighs/atom = 5.6203704
Neighbor list builds = 272
Dangerous builds = 0

write_data data.${outfile} nocoeff nofix
write_data data.1708804647 nocoeff nofix
System init for write_data ...
Generated 0 of 0 mixed pair_coeff terms from geometric mixing rule
Total wall time: 0:00:01
