LAMMPS (21 Nov 2023)
OMP_NUM_THREADS environment is not set. Defaulting to 1 thread. (src/comm.cpp:98)
  using 1 OpenMP thread(s) per MPI task
###variable outfile string L15.17
###variable L equal 15.17

units lj

newton off
atom_style      sphere
boundary        p p p
comm_modify     mode single vel yes


region      boxid block 0.0     $L      0.0       $L      0.0       $L
region      boxid block 0.0     5.4465      0.0       $L      0.0       $L
region      boxid block 0.0     5.4465      0.0       5.4465      0.0       $L
region      boxid block 0.0     5.4465      0.0       5.4465      0.0       5.4465
#create_box  1 boxid
include create_box.in
create_box 1 boxid
Created orthogonal box = (0 0 0) to (5.4465 5.4465 5.4465)
  1 by 1 by 1 MPI processor grid


######
include create_np.in
create_atoms 1 random 108 1827 boxid
Created 108 atoms
  using lattice units in orthogonal box = (0 0 0) to (5.4465 5.4465 5.4465)
  create_atoms CPU = 0.001 seconds
velocity    all create 1.0 87287 dist gaussian

#####
include particles.in
set type 1 diameter 1.0
Setting atom values ...
  108 settings made for diameter
set type 1 mass 26.0
Setting atom values ...
  108 settings made for mass

###
fix 1 all langevin 1.0 1.0 0.1 12345
fix 2 all nve/sphere

###
pair_style lj/cut 1.
include pots_lj_lan.in
pair_coeff 1 1 10.0 1.0 1.122462048309373
pair_modify shift yes



minimize          1.0e-4 1.0e-6 1000 1000
Generated 0 of 0 mixed pair_coeff terms from geometric mixing rule
Neighbor list info ...
  update: every = 1 steps, delay = 0 steps, check = yes
  max neighbors/atom: 2000, page size: 100000
  master list distance cutoff = 1.422462
  ghost atom cutoff = 1.422462
  binsize = 0.71123102, bins = 8 8 8
  1 neighbor lists, perpetual/occasional/extra = 1 0 0
  (1) pair lj/cut, perpetual
      attributes: half, newton off
      pair build: half/bin/newtoff
      stencil: full/bin/3d
      bin: standard
Per MPI rank memory allocation (min/avg/max) = 5.442 | 5.442 | 5.442 Mbytes
   Step          Temp          E_pair         E_mol          TotEng         Press     
         0   49.656342      9.2963165e+10  0              9.2963165e+10  2.4856667e+11
        53   49.656342      5.3742806e-08  0              73.794842      32.886037    
Loop time of 0.00375649 on 1 procs for 53 steps with 108 atoms

275.5% CPU use with 1 MPI tasks x 1 OpenMP threads

Minimization stats:
  Stopping criterion = quadratic factors are zero
  Energy initial, next-to-last, final = 
      92963165299.4683 5.37428064520087e-08 5.37428064520087e-08
  Force two-norm initial, final = 8.0572107e+14 0.10938822
  Force max component initial, final = 3.6053904e+14 0.034222606
  Final line search alpha, max atom move = 0.015625 0.00053472822
  Iterations, force evaluations = 53 211

MPI task timing breakdown:
Section |  min time  |  avg time  |  max time  |%varavg| %total
---------------------------------------------------------------
Pair    | 0.00099409 | 0.00099409 | 0.00099409 |   0.0 | 26.46
Neigh   | 0.0015807  | 0.0015807  | 0.0015807  |   0.0 | 42.08
Comm    | 0.0007597  | 0.0007597  | 0.0007597  |   0.0 | 20.22
Output  | 0          | 0          | 0          |   0.0 |  0.00
Modify  | 0          | 0          | 0          |   0.0 |  0.00
Other   |            | 0.000422   |            |       | 11.23

Nlocal:            108 ave         108 max         108 min
Histogram: 1 0 0 0 0 0 0 0 0 0
Nghost:            272 ave         272 max         272 min
Histogram: 1 0 0 0 0 0 0 0 0 0
Neighs:            585 ave         585 max         585 min
Histogram: 1 0 0 0 0 0 0 0 0 0

Total # of neighbors = 585
Ave neighs/atom = 5.4166667
Neighbor list builds = 20
Dangerous builds = 0

thermo_style custom step temp ke pe etotal
thermo 500
timestep 0.001
#dump    id all custom 5000 out_lan_${outfile}.lammpstrj id type radius mass xu yu zu vx vy vz fx fy fz
dump    id all custom 5000 out_lan_${outfile}.lammpstrj id type radius mass x y z
dump    id all custom 5000 out_lan_1708719445.lammpstrj id type radius mass x y z
run 100000
Generated 0 of 0 mixed pair_coeff terms from geometric mixing rule
Per MPI rank memory allocation (min/avg/max) = 4.318 | 4.318 | 4.318 Mbytes
   Step          Temp          KinEng         PotEng         TotEng    
        53   49.656342      73.794842      5.3742806e-08  73.794842    
       500   1.2115366      1.800478       0.74455676     2.5450348    
      1000   1.1131473      1.6542605      0.53349136     2.1877519    
      1500   1.0195298      1.5151346      0.55858728     2.0737219    
      2000   0.9420222      1.3999497      0.4257608      1.8257105    
      2500   1.0036079      1.4914729      0.53810492     2.0295778    
      3000   0.91592995     1.3611737      0.5728374      1.9340111    
      3500   1.0032839      1.4909913      0.34063351     1.8316248    
      4000   0.97537456     1.449515       0.41641131     1.8659263    
      4500   0.95385319     1.4175318      0.3483839      1.7659157    
      5000   0.96974563     1.4411497      0.47214164     1.9132914    
      5500   1.1697661      1.7384024      0.44061648     2.1790189    
      6000   1.0394076      1.5446752      0.39754052     1.9422157    
      6500   1.0930576      1.6244051      0.51265318     2.1370583    
      7000   1.0567707      1.5704786      0.5218652      2.0923438    
      7500   0.97220755     1.4448084      0.36957152     1.81438      
      8000   1.0961919      1.629063       0.31371427     1.9427772    
      8500   0.99051096     1.4720093      0.4346622      1.9066716    
      9000   0.95776816     1.4233499      0.2859676      1.7093175    
      9500   0.96853892     1.4393564      0.2884417      1.7277981    
     10000   1.1069907      1.6451112      0.4441865      2.0892977    
     10500   0.88164276     1.3102191      0.4081241      1.7183432    
     11000   0.93382097     1.3877617      0.5185277      1.9062894    
     11500   0.97843164     1.4540581      0.39393246     1.8479906    
     12000   0.91816724     1.3644985      0.41237896     1.7768775    
     12500   1.011209       1.5027689      0.41578601     1.9185549    
     13000   1.034359       1.5371725      0.37691518     1.9140876    
     13500   1.1828244      1.7578084      0.36887446     2.1266829    
     14000   1.0263712      1.5253017      0.53207431     2.057376     
     14500   1.1304559      1.6799831      0.40626306     2.0862462    
     15000   1.0732541      1.5949748      0.48730552     2.0822803    
     15500   0.89351275     1.3278592      0.4182878      1.746147     
     16000   0.99914871     1.484846       0.3539991      1.8388451    
     16500   1.1240037      1.6703944      0.28086269     1.9512571    
     17000   0.94432351     1.4033697      0.29466999     1.6980397    
     17500   1.0108927      1.5022989      0.22441387     1.7267128    
     18000   0.97910978     1.4550659      0.44868725     1.9037532    
     18500   0.99130903     1.4731954      0.34725073     1.8204461    
     19000   1.0424278      1.5491636      0.33381376     1.8829773    
     19500   1.1299048      1.679164       0.39137979     2.0705438    
     20000   1.010978       1.5024256      0.34166275     1.8440883    
     20500   0.99625246     1.4805419      0.47259832     1.9531402    
     21000   0.90908847     1.3510065      0.35740152     1.708408     
     21500   1.0033266      1.4910547      0.43952384     1.9305786    
     22000   0.93607329     1.3911089      0.42164592     1.8127548    
     22500   0.8910095      1.3241391      0.42644049     1.7505796    
     23000   1.0307404      1.5317948      0.38588246     1.9176772    
     23500   1.0236873      1.5213131      0.44738899     1.9687021    
     24000   1.0305068      1.5314476      0.40355044     1.934998     
     24500   0.84583368     1.2570028      0.42584246     1.6828453    
     25000   0.88976609     1.3222913      0.48282177     1.805113     
     25500   1.0009269      1.4874886      0.40432226     1.8918108    
     26000   0.93155837     1.3843992      0.49972763     1.8841269    
     26500   1.0409316      1.54694        0.42899094     1.975931     
     27000   0.9590565      1.4252645      0.40146336     1.8267279    
     27500   1.0982576      1.6321329      0.33433054     1.9664634    
     28000   1.0856504      1.6133971      0.29767049     1.9110676    
     28500   0.91303927     1.3568778      0.40014256     1.7570204    
     29000   1.0289099      1.5290744      0.46165028     1.9907247    
     29500   1.0024935      1.4898167      0.41920526     1.909022     
     30000   1.0014275      1.4882325      0.51098635     1.9992188    
     30500   1.1038784      1.640486       0.41749934     2.0579854    
     31000   1.0979403      1.6316613      0.40238534     2.0340466    
     31500   0.89352853     1.3278827      0.41530811     1.7431908    
     32000   1.0109751      1.5024213      0.46699934     1.9694207    
     32500   0.89570279     1.3311139      0.50414989     1.8352638    
     33000   1.071803       1.5928184      0.45487519     2.0476936    
     33500   1.0217009      1.5183611      0.5217594      2.0401205    
     34000   1.0880482      1.6169605      0.38894979     2.0059103    
     34500   1.1264047      1.6739626      0.39092062     2.0648832    
     35000   1.0667698      1.5853385      0.43267661     2.0180151    
     35500   1.0575043      1.5715689      0.51538668     2.0869556    
     36000   0.99673727     1.4812623      0.4261085      1.9073708    
     36500   1.0186798      1.5138713      0.49777977     2.0116511    
     37000   0.99827186     1.4835429      0.51720532     2.0007482    
     37500   1.0054634      1.4942304      0.4152889      1.9095193    
     38000   0.82813253     1.2306969      0.49719053     1.7278875    
     38500   0.95203846     1.4148349      0.48917687     1.9040118    
     39000   1.018026       1.5128997      0.42429761     1.9371973    
     39500   1.085127       1.6126193      0.55288017     2.1654995    
     40000   0.97938269     1.4554715      0.52325892     1.9787304    
     40500   1.0117056      1.5035069      0.34732681     1.8508337    
     41000   0.99382428     1.4769333      0.42654999     1.9034833    
     41500   0.88954132     1.3219572      0.50045665     1.8224139    
     42000   1.1228814      1.6687266      0.35394678     2.0226733    
     42500   0.93272237     1.3861291      0.45424752     1.8403766    
     43000   0.8923068      1.326067       0.39498307     1.7210501    
     43500   0.95333532     1.4167622      0.28387299     1.7006352    
     44000   1.0432999      1.5504595      0.44697899     1.9974385    
     44500   1.0084318      1.4986417      0.53578093     2.0344227    
     45000   1.1783066      1.7510945      0.49537875     2.2464732    
     45500   1.0201161      1.5160058      0.34581144     1.8618173    
     46000   0.97975962     1.4560317      0.421302       1.8773337    
     46500   1.0641302      1.5814157      0.42768417     2.0090999    
     47000   1.1020196      1.6377236      0.45457933     2.0923029    
     47500   1.0078857      1.4978301      0.37280799     1.8706381    
     48000   0.98769408     1.4678231      0.49226275     1.9600859    
     48500   0.9392679      1.3958565      0.40301583     1.7988723    
     49000   0.93939888     1.3960511      0.32365462     1.7197057    
     49500   0.92839552     1.3796989      0.54428084     1.9239797    
     50000   0.99963795     1.4855731      0.39143652     1.8770096    
     50500   0.93906152     1.3955498      0.33764704     1.7331968    
     51000   0.95674469     1.4218289      0.44110923     1.8629381    
     51500   1.1158855      1.6583298      0.4909953      2.1493251    
     52000   0.96920077     1.44034        0.40937801     1.849718     
     52500   1.0675222      1.5864567      0.53506001     2.1215167    
     53000   0.93453329     1.3888203      0.4000687      1.788889     
     53500   1.0211385      1.5175253      0.39983542     1.9173607    
     54000   1.0842174      1.6112676      0.36492495     1.9761925    
     54500   0.98483413     1.4635729      0.40392866     1.8675016    
     55000   0.9869878      1.4667735      0.23565913     1.7024327    
     55500   1.009472       1.5001875      0.32206048     1.822248     
     56000   0.98485262     1.4636004      0.32768627     1.7912867    
     56500   0.9716861      1.4440335      0.3370649      1.7810984    
     57000   1.0790268      1.6035537      0.33399061     1.9375443    
     57500   1.0459058      1.5543322      0.36840763     1.9227398    
     58000   1.0014152      1.4882142      0.29654276     1.7847569    
     58500   1.0118712      1.503753       0.36732691     1.8710799    
     59000   0.94738351     1.4079172      0.37492828     1.7828454    
     59500   0.93675559     1.3921229      0.31528809     1.707411     
     60000   0.8514686      1.265377       0.30382215     1.5691991    
     60500   0.95049528     1.4125416      0.32421658     1.7367582    
     61000   1.0392473      1.544437       0.22704602     1.771483     
     61500   1.0797801      1.6046732      0.29745652     1.9021298    
     62000   1.0798838      1.6048274      0.38608074     1.9909081    
     62500   1.042379       1.5490911      0.29044517     1.8395362    
     63000   0.94136327     1.3989704      0.36069431     1.7596647    
     63500   1.0226787      1.5198141      0.53190622     2.0517203    
     64000   1.0296105      1.5301157      0.43183087     1.9619465    
     64500   0.97793866     1.4533255      0.50410558     1.9574311    
     65000   1.0476816      1.5569713      0.37042956     1.9274008    
     65500   1.1041717      1.6409218      0.32724297     1.9681648    
     66000   1.0668633      1.5854774      0.43318763     2.018665     
     66500   1.0764755      1.5997623      0.35629634     1.9560586    
     67000   1.0773148      1.6010095      0.37369562     1.9747051    
     67500   1.1116691      1.6520638      0.38799692     2.0400607    
     68000   0.93072215     1.3831565      0.42564873     1.8088053    
     68500   1.1353129      1.6872012      0.40054705     2.0877482    
     69000   1.0574122      1.5714321      0.38042736     1.9518594    
     69500   0.96710452     1.4372248      0.53087099     1.9680958    
     70000   1.096316       1.6292474      0.32201853     1.951266     
     70500   0.92949721     1.3813361      0.38143076     1.7627669    
     71000   0.96310634     1.431283       0.34792087     1.7792039    
     71500   1.0566407      1.5702855      0.39849655     1.968782     
     72000   0.98302671     1.4608869      0.30204694     1.7629339    
     72500   0.9643928      1.4331948      0.44553046     1.8787253    
     73000   0.90765963     1.3488831      0.44759697     1.79648      
     73500   1.0493194      1.5594051      0.34004715     1.8994523    
     74000   0.94326955     1.4018034      0.3353589      1.7371623    
     74500   1.0275461      1.5270476      0.3223631      1.8494107    
     75000   0.92478609     1.3743349      0.24967254     1.6240074    
     75500   0.91875526     1.3653724      0.37384536     1.7392178    
     76000   0.9128797      1.3566407      0.34306874     1.6997094    
     76500   1.1090644      1.6481929      0.28203763     1.9302305    
     77000   0.99654122     1.480971       0.43756214     1.9185331    
     77500   0.95883964     1.4249422      0.29681348     1.7217557    
     78000   1.0590201      1.5738216      0.3706256      1.9444472    
     78500   1.1038067      1.6403793      0.34774267     1.988122     
     79000   0.89556509     1.3309092      0.3487011      1.6796103    
     79500   1.073866       1.5958842      0.44790334     2.0437875    
     80000   1.0816104      1.6073932      0.37450244     1.9818956    
     80500   1.0456415      1.5539394      0.53546174     2.0894012    
     81000   1.0546677      1.5673533      0.37065663     1.93801      
     81500   1.1292084      1.6781291      0.34668971     2.0248188    
     82000   0.97948919     1.4556298      0.47676933     1.9323991    
     82500   1.0196112      1.5152555      0.51597702     2.0312326    
     83000   0.90591981     1.3462975      0.28170893     1.6280064    
     83500   0.97114013     1.4432221      0.46887165     1.9120938    
     84000   1.0408664      1.5468432      0.34141953     1.8882627    
     84500   1.155947       1.7178656      0.44204339     2.159909     
     85000   0.99713584     1.4818547      0.43932599     1.9211806    
     85500   1.0906407      1.6208132      0.30186796     1.9226812    
     86000   1.1186852      1.6624905      0.43850002     2.1009905    
     86500   1.0585953      1.5731902      0.35432163     1.9275118    
     87000   0.92484        1.374415       0.52037102     1.894786     
     87500   1.2284164      1.8255633      0.41874888     2.2443122    
     88000   0.93372764     1.387623       0.36584099     1.753464     
     88500   0.95230119     1.4152254      0.45443537     1.8696607    
     89000   0.972968       1.4459386      0.39567212     1.8416107    
     89500   1.0174816      1.5120908      0.45676405     1.9688548    
     90000   1.0833351      1.6099564      0.44143724     2.0513936    
     90500   1.0290618      1.5293002      0.46371045     1.9930107    
     91000   0.93712771     1.3926759      0.38784542     1.7805213    
     91500   0.9207269      1.3683025      0.47363929     1.8419418    
     92000   1.0044344      1.4927011      0.36015932     1.8528604    
     92500   0.87532975     1.3008373      0.27631929     1.5771566    
     93000   1.049527       1.5597137      0.42103818     1.9807519    
     93500   1.0374245      1.5417281      0.33817791     1.879906     
     94000   0.9386776      1.3949792      0.44937747     1.8443567    
     94500   1.1228957      1.6687477      0.41288009     2.0816278    
     95000   0.99476302     1.4783284      0.36429308     1.8426215    
     95500   1.0434989      1.5507553      0.30825356     1.8590088    
     96000   1.0933948      1.6249061      0.40908459     2.0339907    
     96500   0.96705129     1.4371457      0.41057509     1.8477208    
     97000   1.1402017      1.6944664      0.48209514     2.1765616    
     97500   1.0425342      1.5493217      0.36183117     1.9111528    
     98000   0.83190862     1.2363086      0.39880923     1.6351179    
     98500   0.96840304     1.4391545      0.48299718     1.9221517    
     99000   1.036707       1.5406617      0.42905901     1.9697207    
     99500   1.0150852      1.5085294      0.33552661     1.8440561    
    100000   0.85660362     1.2730082      0.41086793     1.6838761    
    100053   0.84200062     1.2513065      0.38975792     1.6410644    
Loop time of 1.01573 on 1 procs for 100000 steps with 108 atoms

Performance: 8506156.495 tau/day, 98450.885 timesteps/s, 10.633 Matom-step/s
119.9% CPU use with 1 MPI tasks x 1 OpenMP threads

MPI task timing breakdown:
Section |  min time  |  avg time  |  max time  |%varavg| %total
---------------------------------------------------------------
Pair    | 0.19985    | 0.19985    | 0.19985    |   0.0 | 19.68
Neigh   | 0.01849    | 0.01849    | 0.01849    |   0.0 |  1.82
Comm    | 0.19936    | 0.19936    | 0.19936    |   0.0 | 19.63
Output  | 0.0049094  | 0.0049094  | 0.0049094  |   0.0 |  0.48
Modify  | 0.56258    | 0.56258    | 0.56258    |   0.0 | 55.39
Other   |            | 0.03055    |            |       |  3.01

Nlocal:            108 ave         108 max         108 min
Histogram: 1 0 0 0 0 0 0 0 0 0
Nghost:            281 ave         281 max         281 min
Histogram: 1 0 0 0 0 0 0 0 0 0
Neighs:            605 ave         605 max         605 min
Histogram: 1 0 0 0 0 0 0 0 0 0

Total # of neighbors = 605
Ave neighs/atom = 5.6018519
Neighbor list builds = 273
Dangerous builds = 0

write_data data.${outfile} nocoeff nofix
write_data data.1708719445 nocoeff nofix
System init for write_data ...
Generated 0 of 0 mixed pair_coeff terms from geometric mixing rule
Total wall time: 0:00:01
