LAMMPS (21 Nov 2023)
OMP_NUM_THREADS environment is not set. Defaulting to 1 thread. (src/comm.cpp:98)
  using 1 OpenMP thread(s) per MPI task
###variable outfile string L15.17
###variable L equal 15.17

units lj

newton off
atom_style      sphere
boundary        p p p
comm_modify     mode single vel yes


region      boxid block 0.0     $L      0.0       $L      0.0       $L
region      boxid block 0.0     5.209397078678045      0.0       $L      0.0       $L
region      boxid block 0.0     5.209397078678045      0.0       5.209397078678045      0.0       $L
region      boxid block 0.0     5.209397078678045      0.0       5.209397078678045      0.0       5.209397078678045
#create_box  1 boxid
include create_box.in
create_box 1 boxid
Created orthogonal box = (0 0 0) to (5.2093971 5.2093971 5.2093971)
  1 by 1 by 1 MPI processor grid


######
include create_np.in
create_atoms 1 random 54 4490 boxid
Created 54 atoms
  using lattice units in orthogonal box = (0 0 0) to (5.2093971 5.2093971 5.2093971)
  create_atoms CPU = 0.001 seconds
velocity    all create 1.0 87287 dist gaussian

#####
include particles.in
set type 1 diameter 1.0
Setting atom values ...
  54 settings made for diameter
set type 1 mass 26.0
Setting atom values ...
  54 settings made for mass

###
fix 1 all langevin 1.0 1.0 0.1 12345
fix 2 all nve/sphere

###
pair_style lj/cut 1.
include pots_lj_lan.in
pair_coeff 1 1 10.0 1.0 1.122462048309373
pair_modify shift yes



minimize          1.0e-4 1.0e-6 1000 1000
Generated 0 of 0 mixed pair_coeff terms from geometric mixing rule
Neighbor list info ...
  update: every = 1 steps, delay = 0 steps, check = yes
  max neighbors/atom: 2000, page size: 100000
  master list distance cutoff = 1.422462
  ghost atom cutoff = 1.422462
  binsize = 0.71123102, bins = 8 8 8
  1 neighbor lists, perpetual/occasional/extra = 1 0 0
  (1) pair lj/cut, perpetual
      attributes: half, newton off
      pair build: half/bin/newtoff
      stencil: full/bin/3d
      bin: standard
Per MPI rank memory allocation (min/avg/max) = 5.441 | 5.441 | 5.441 Mbytes
   Step          Temp          E_pair         E_mol          TotEng         Press     
         0   49.656342      921097.7       0              921170.81      1408658.8    
        25   49.656342      1.6280266e-06  0              73.105172      18.617301    
Loop time of 0.000543078 on 1 procs for 25 steps with 54 atoms

532.7% CPU use with 1 MPI tasks x 1 OpenMP threads

Minimization stats:
  Stopping criterion = quadratic factors are zero
  Energy initial, next-to-last, final = 
      921097.700177543 1.62802659774707e-06 1.62802659774707e-06
  Force two-norm initial, final = 1.5416931e+09 0.4495044
  Force max component initial, final = 8.635373e+08 0.28089484
  Final line search alpha, max atom move = 0.02225032 0.00625
  Iterations, force evaluations = 25 90

MPI task timing breakdown:
Section |  min time  |  avg time  |  max time  |%varavg| %total
---------------------------------------------------------------
Pair    | 0.00011124 | 0.00011124 | 0.00011124 |   0.0 | 20.48
Neigh   | 0.00018039 | 0.00018039 | 0.00018039 |   0.0 | 33.22
Comm    | 0.00015772 | 0.00015772 | 0.00015772 |   0.0 | 29.04
Output  | 0          | 0          | 0          |   0.0 |  0.00
Modify  | 0          | 0          | 0          |   0.0 |  0.00
Other   |            | 9.372e-05  |            |       | 17.26

Nlocal:             54 ave          54 max          54 min
Histogram: 1 0 0 0 0 0 0 0 0 0
Nghost:            144 ave         144 max         144 min
Histogram: 1 0 0 0 0 0 0 0 0 0
Neighs:            182 ave         182 max         182 min
Histogram: 1 0 0 0 0 0 0 0 0 0

Total # of neighbors = 182
Ave neighs/atom = 3.3703704
Neighbor list builds = 7
Dangerous builds = 0

thermo_style custom step temp ke pe etotal
thermo 500
timestep 0.001
#dump    id all custom 5000 out_lan_${outfile}.lammpstrj id type radius mass xu yu zu vx vy vz fx fy fz
dump    id all custom 5000 out_lan_${outfile}.lammpstrj id type radius mass x y z
dump    id all custom 5000 out_lan_1708795374.lammpstrj id type radius mass x y z
run 100000
Generated 0 of 0 mixed pair_coeff terms from geometric mixing rule
Per MPI rank memory allocation (min/avg/max) = 4.316 | 4.316 | 4.316 Mbytes
   Step          Temp          KinEng         PotEng         TotEng    
        25   49.656342      73.105171      1.6280266e-06  73.105172    
       500   0.99496327     1.464807       0.19037201     1.655179     
      1000   1.149366       1.6921222      0.19233625     1.8844584    
      1500   1.0613332      1.5625183      0.32964251     1.8921608    
      2000   1.1089852      1.6326727      0.1562027      1.7888754    
      2500   1.2356809      1.8191969      0.13678147     1.9559784    
      3000   0.96146503     1.4154902      0.10769647     1.5231867    
      3500   1.1061901      1.6285577      0.081671575    1.7102293    
      4000   0.97175528     1.4306397      0.12444762     1.5550873    
      4500   1.120086       1.6490155      0.060016978    1.7090325    
      5000   1.0313887      1.5184333      0.097483226    1.6159166    
      5500   1.0142653      1.4932239      0.16341728     1.6566412    
      6000   0.97111738     1.4297006      0.063640092    1.4933407    
      6500   0.98923316     1.456371       0.21020496     1.666576     
      7000   1.1355421      1.6717702      0.20756908     1.8793393    
      7500   0.93725048     1.379841       0.25060879     1.6304498    
      8000   1.0979333      1.6164019      0.11780185     1.7342037    
      8500   0.95436936     1.4050438      0.18894579     1.5939896    
      9000   0.93214018     1.3723175      0.18810953     1.560427     
      9500   0.95437151     1.405047       0.17482346     1.5798704    
     10000   1.1730842      1.7270407      0.16069864     1.8877393    
     10500   1.0860244      1.5988693      0.19435727     1.7932266    
     11000   0.92517804     1.3620677      0.19319384     1.5552615    
     11500   0.97134647     1.4300379      0.064765621    1.4948035    
     12000   1.0508545      1.5470913      0.21624546     1.7633368    
     12500   1.0839299      1.5957857      0.1795413      1.775327     
     13000   0.96597428     1.4221288      0.22014909     1.6422779    
     13500   1.1501514      1.6932785      0.10498579     1.7982642    
     14000   0.97520316     1.4357158      0.15368344     1.5893992    
     14500   1.0270128      1.5119911      0.12775449     1.6397456    
     15000   1.0822057      1.5932473      0.090141678    1.683389     
     15500   0.92990139     1.3690215      0.073414446    1.4424359    
     16000   0.99007696     1.4576133      0.091459941    1.5490732    
     16500   0.66506288     0.97912035     0.2127103      1.1918306    
     17000   1.1966616      1.7617518      0.07182493     1.8335767    
     17500   0.95492077     1.4058556      0.11705003     1.5229056    
     18000   0.95018909     1.3988895      0.10219033     1.5010798    
     18500   1.0212821      1.5035542      0.1367068      1.640261     
     19000   1.0906527      1.6056832      0.072655612    1.6783388    
     19500   1.0663077      1.569842       0.11481547     1.6846574    
     20000   0.96214095     1.4164853      0.11457876     1.531064     
     20500   0.96684323     1.4234081      0.16609098     1.5894991    
     21000   1.0625467      1.5643049      0.10316272     1.6674677    
     21500   1.0239822      1.5075294      0.11516217     1.6226915    
     22000   1.0324998      1.5200692      0.19720146     1.7172707    
     22500   0.97599189     1.4368769      0.097713533    1.5345905    
     23000   0.93401087     1.3750716      0.083428993    1.4585006    
     23500   0.97069842     1.4290838      0.084686329    1.5137701    
     24000   0.88150217     1.2977671      0.23395625     1.5317233    
     24500   1.1178194      1.6456786      0.021654922    1.6673336    
     25000   0.95122249     1.4004109      0.12675451     1.5271654    
     25500   0.87438404     1.2872876      0.073262708    1.3605503    
     26000   0.97201359     1.43102        0.064151201    1.4951712    
     26500   0.97667153     1.4378775      0.096102614    1.5339801    
     27000   1.1155324      1.6423115      0.034083287    1.6763948    
     27500   0.98912823     1.4562166      0.20637184     1.6625884    
     28000   1.1900628      1.7520369      0.10650134     1.8585382    
     28500   1.1327586      1.6676724      0.12938652     1.797059     
     29000   1.0422157      1.5343731      0.087549409    1.6219225    
     29500   1.0029976      1.4766353      0.10858411     1.5852194    
     30000   1.0204928      1.5023922      0.12732291     1.6297151    
     30500   1.1271467      1.6594105      0.19137985     1.8507903    
     31000   1.1011909      1.6211977      0.10320551     1.7244032    
     31500   0.98895634     1.4559635      0.056345711    1.5123092    
     32000   1.007335       1.4830209      0.073576671    1.5565976    
     32500   0.92648466     1.3639913      0.095083317    1.4590746    
     33000   1.1726513      1.7264033      0.1672042      1.8936075    
     33500   1.0748854      1.5824701      0.10212444     1.6845946    
     34000   0.99185455     1.4602303      0.062427502    1.5226578    
     34500   0.99236904     1.4609878      0.032634844    1.4936226    
     35000   0.88412294     1.3016254      0.048971412    1.3505969    
     35500   0.98069556     1.4438018      0.082959591    1.5267614    
     36000   1.1260728      1.6578294      0.096049394    1.7538788    
     36500   1.056495       1.5553954      0.095803507    1.6511989    
     37000   1.1307927      1.6647781      0.079699479    1.7444776    
     37500   0.84485646     1.2438165      0.086698503    1.330515     
     38000   1.04989        1.5456714      0.16260838     1.7082798    
     38500   1.086789       1.5999949      0.10803717     1.7080321    
     39000   1.2910605      1.9007279      0.042728198    1.9434561    
     39500   0.99709864     1.4679508      0.06045769     1.5284085    
     40000   1.0683915      1.5729097      0.12351604     1.6964258    
     40500   1.0830205      1.5944468      0.12675521     1.721202     
     41000   1.2003594      1.7671958      0.14109014     1.908286     
     41500   0.89164893     1.3127054      0.15492805     1.4676334    
     42000   0.85510603     1.2589061      0.056584555    1.3154907    
     42500   1.0708256      1.5764932      0.049340599    1.6258338    
     43000   0.87646965     1.2903581      0.084159164    1.3745173    
     43500   0.84750213     1.2477115      0.038289317    1.2860008    
     44000   1.1865042      1.7467979      0.059917566    1.8067155    
     44500   0.84705762     1.2470571      0.093308932    1.340366     
     45000   0.98337406     1.4477451      0.16654565     1.6142908    
     45500   1.02547        1.5097197      0.06954661     1.5792663    
     46000   0.87611544     1.2898366      0.026376018    1.3162126    
     46500   1.1737249      1.7279839      0.055667974    1.7836519    
     47000   1.0376771      1.5276913      0.021020256    1.5487115    
     47500   1.0292579      1.5152963      0.078088918    1.5933852    
     48000   1.0760073      1.5841218      0.10124293     1.6853647    
     48500   0.95975895     1.4129785      0.16072057     1.573699     
     49000   1.2513757      1.8423031      0.08713129     1.9294344    
     49500   0.9572208      1.4092417      0.10150523     1.510747     
     50000   1.0615797      1.5628812      0.13960759     1.7024888    
     50500   0.88988237     1.3101046      0.12403812     1.4341427    
     51000   1.0777987      1.5867592      0.052445473    1.6392047    
     51500   0.95478644     1.4056578      0.075029837    1.4806877    
     52000   1.1417049      1.6808433      0.060611075    1.7414544    
     52500   0.9392386      1.3827679      0.092834557    1.4756025    
     53000   1.0064531      1.4817226      0.11818071     1.5999033    
     53500   0.79073393     1.1641361      0.023240738    1.1873768    
     54000   1.0106456      1.4878949      0.12626105     1.6141559    
     54500   1.2170191      1.7917226      0.071386669    1.8631092    
     55000   0.96997132     1.4280133      0.094091525    1.5221049    
     55500   0.97764393     1.4393091      0.057544835    1.496854     
     56000   0.89504577     1.3177063      0.16300491     1.4807112    
     56500   0.93767989     1.3804732      0.040386841    1.42086      
     57000   0.90482687     1.3321062      0.089327426    1.4214336    
     57500   1.1322544      1.66693        0.19334919     1.8602792    
     58000   1.0124541      1.4905575      0.12366681     1.6142243    
     58500   1.1692219      1.7213545      0.078996224    1.8003507    
     59000   1.1543745      1.6994957      0.056118885    1.7556146    
     59500   1.1450143      1.6857155      0.042730719    1.7284462    
     60000   0.98048856     1.443497       0.065269872    1.5087669    
     60500   0.93427113     1.3754547      0.11916051     1.4946152    
     61000   0.9901817      1.4577675      0.17059722     1.6283647    
     61500   0.91022599     1.3400549      0.053020168    1.3930751    
     62000   1.0279631      1.5133901      0.025453756    1.5388439    
     62500   1.0360259      1.5252603      0.10922724     1.6344876    
     63000   1.0131742      1.4916175      0.13123012     1.6228476    
     63500   1.0615781      1.5628789      0.1027124      1.6655913    
     64000   1.0590572      1.5591675      0.14043029     1.6995978    
     64500   0.99238528     1.4610117      0.085346644    1.5463583    
     65000   1.1697402      1.7221175      0.10173672     1.8238542    
     65500   1.029384       1.515482       0.18497456     1.7004565    
     66000   1.0534764      1.5509513      0.10209544     1.6530468    
     66500   0.92156854     1.3567537      0.16100448     1.5177582    
     67000   1.1520113      1.6960167      0.1500411      1.8460578    
     67500   0.95912312     1.4120424      0.038954893    1.4509973    
     68000   1.1286004      1.6615505      0.20282894     1.8643795    
     68500   1.0040541      1.4781908      0.090578855    1.5687697    
     69000   0.8539926      1.2572669      0.044490366    1.3017573    
     69500   0.8698467      1.2806076      0.08966238     1.37027      
     70000   1.1261343      1.65792        0.17947346     1.8373934    
     70500   0.98089321     1.4440928      0.13690031     1.5809931    
     71000   1.0471629      1.5416565      0.14377204     1.6854285    
     71500   1.1064281      1.6289081      0.15498483     1.7838929    
     72000   0.83744944     1.2329117      0.23352442     1.4664361    
     72500   1.1311591      1.6653176      0.228122       1.8934396    
     73000   0.95869129     1.4114066      0.11683965     1.5282463    
     73500   1.088295       1.602212       0.19336706     1.7955791    
     74000   1.0660579      1.5694742      0.20417781     1.773652     
     74500   1.1714725      1.7246678      0.19653936     1.9212072    
     75000   0.94880982     1.3968589      0.079793118    1.476652     
     75500   1.0655815      1.5687728      0.055330974    1.6241038    
     76000   1.2147493      1.7883809      0.12553789     1.9139188    
     76500   0.95599523     1.4074374      0.050582584    1.45802      
     77000   1.0570319      1.5561858      0.099949981    1.6561358    
     77500   1.0579473      1.5575335      0.097336729    1.6548703    
     78000   1.0563952      1.5552484      0.044358809    1.5996072    
     78500   0.93094947     1.3705645      0.14083253     1.511397     
     79000   1.1825779      1.7410175      0.03176029     1.7727778    
     79500   0.93047376     1.3698642      0.032089771    1.4019539    
     80000   1.2231584      1.800761       0.2004067      2.0011677    
     80500   1.0271169      1.5121443      0.1334053      1.6455496    
     81000   0.7897149      1.1626358      0.077613105    1.2402489    
     81500   1.2387989      1.8237873      0.1786311      2.0024184    
     82000   0.89061171     1.3111784      0.068855164    1.3800335    
     82500   1.1829756      1.741603       0.099794215    1.8413972    
     83000   1.0218892      1.504448       0.083974221    1.5884222    
     83500   1.0296299      1.515844       0.23676917     1.7526131    
     84000   0.99441736     1.4640033      0.055400767    1.5194041    
     84500   0.99922081     1.4710751      0.072846715    1.5439218    
     85000   0.97245776     1.4316739      0.050477139    1.4821511    
     85500   0.90298214     1.3293904      0.23021416     1.5596045    
     86000   1.052211       1.5490884      0.08239477     1.6314832    
     86500   0.82820631     1.2193037      0.066305248    1.285609     
     87000   1.067673       1.5718519      0.087193348    1.6590452    
     87500   1.1369746      1.6738793      0.16144614     1.8353255    
     88000   1.162865       1.7119956      0.10618579     1.8181814    
     88500   1.1215798      1.6512147      0.17431082     1.8255255    
     89000   0.96191394     1.4161511      0.18973695     1.605888     
     89500   1.0011083      1.473854       0.10904538     1.5828993    
     90000   0.74217523     1.0926469      0.19478986     1.2874367    
     90500   0.93920891     1.3827242      0.10892813     1.4916524    
     91000   1.0321303      1.5195252      0.081542238    1.6010674    
     91500   1.0263257      1.5109795      0.11606923     1.6270488    
     92000   1.0158964      1.4956252      0.070931428    1.5665567    
     92500   0.98210481     1.4458765      0.055660193    1.5015367    
     93000   0.89644105     1.3197604      0.050064405    1.3698248    
     93500   1.0450753      1.538583       0.1282125      1.6667955    
     94000   1.0455976      1.539352       0.17256121     1.7119132    
     94500   0.88344558     1.3006282      0.082094598    1.3827228    
     95000   1.0100052      1.4869521      0.10056451     1.5875166    
     95500   1.2080837      1.7785676      0.053424033    1.8319916    
     96000   0.96338785     1.418321       0.17826401     1.596585     
     96500   0.91018041     1.3399878      0.17303413     1.513022     
     97000   0.94240285     1.3874264      0.065937569    1.453364     
     97500   1.0502784      1.5462432      0.073283862    1.619527     
     98000   0.91329269     1.3445698      0.13470016     1.47927      
     98500   0.87585837     1.2894582      0.1194121      1.4088703    
     99000   0.96150498     1.415549       0.043802979    1.459352     
     99500   0.90447185     1.3315836      0.14420083     1.4757844    
    100000   1.051721       1.548367       0.15622632     1.7045934    
    100025   1.0274247      1.5125975      0.17742275     1.6900203    
Loop time of 0.460641 on 1 procs for 100000 steps with 54 atoms

Performance: 18756476.561 tau/day, 217088.849 timesteps/s, 11.723 Matom-step/s
152.0% CPU use with 1 MPI tasks x 1 OpenMP threads

MPI task timing breakdown:
Section |  min time  |  avg time  |  max time  |%varavg| %total
---------------------------------------------------------------
Pair    | 0.05204    | 0.05204    | 0.05204    |   0.0 | 11.30
Neigh   | 0.0059597  | 0.0059597  | 0.0059597  |   0.0 |  1.29
Comm    | 0.099669   | 0.099669   | 0.099669   |   0.0 | 21.64
Output  | 0.0032883  | 0.0032883  | 0.0032883  |   0.0 |  0.71
Modify  | 0.27879    | 0.27879    | 0.27879    |   0.0 | 60.52
Other   |            | 0.0209     |            |       |  4.54

Nlocal:             54 ave          54 max          54 min
Histogram: 1 0 0 0 0 0 0 0 0 0
Nghost:            139 ave         139 max         139 min
Histogram: 1 0 0 0 0 0 0 0 0 0
Neighs:            149 ave         149 max         149 min
Histogram: 1 0 0 0 0 0 0 0 0 0

Total # of neighbors = 149
Ave neighs/atom = 2.7592593
Neighbor list builds = 261
Dangerous builds = 0

write_data data.${outfile} nocoeff nofix
write_data data.1708795374 nocoeff nofix
System init for write_data ...
Generated 0 of 0 mixed pair_coeff terms from geometric mixing rule
Total wall time: 0:00:00
