LAMMPS (21 Nov 2023)
OMP_NUM_THREADS environment is not set. Defaulting to 1 thread. (src/comm.cpp:98)
  using 1 OpenMP thread(s) per MPI task
###variable outfile string L15.17
###variable L equal 15.17

units lj

newton off
atom_style      sphere
boundary        p p p
comm_modify     mode single vel yes


region      boxid block 0.0     $L      0.0       $L      0.0       $L
region      boxid block 0.0     7.223988394141365      0.0       $L      0.0       $L
region      boxid block 0.0     7.223988394141365      0.0       7.223988394141365      0.0       $L
region      boxid block 0.0     7.223988394141365      0.0       7.223988394141365      0.0       7.223988394141365
#create_box  1 boxid
include create_box.in
create_box 1 boxid
Created orthogonal box = (0 0 0) to (7.2239884 7.2239884 7.2239884)
  1 by 1 by 1 MPI processor grid


######
include create_np.in
create_atoms 1 random 108 7580 boxid
Created 108 atoms
  using lattice units in orthogonal box = (0 0 0) to (7.2239884 7.2239884 7.2239884)
  create_atoms CPU = 0.000 seconds
velocity    all create 1.0 87287 dist gaussian

#####
include particles.in
set type 1 diameter 1.0
Setting atom values ...
  108 settings made for diameter
set type 1 mass 26.0
Setting atom values ...
  108 settings made for mass

###
fix 1 all langevin 1.0 1.0 0.1 12345
fix 2 all nve/sphere

###
pair_style lj/cut 1.
include pots_lj_lan.in
pair_coeff 1 1 10.0 1.0 1.122462048309373
pair_modify shift yes



minimize          1.0e-4 1.0e-6 1000 1000
Generated 0 of 0 mixed pair_coeff terms from geometric mixing rule
Neighbor list info ...
  update: every = 1 steps, delay = 0 steps, check = yes
  max neighbors/atom: 2000, page size: 100000
  master list distance cutoff = 1.422462
  ghost atom cutoff = 1.422462
  binsize = 0.71123102, bins = 11 11 11
  1 neighbor lists, perpetual/occasional/extra = 1 0 0
  (1) pair lj/cut, perpetual
      attributes: half, newton off
      pair build: half/bin/newtoff
      stencil: full/bin/3d
      bin: standard
Per MPI rank memory allocation (min/avg/max) = 5.449 | 5.449 | 5.449 Mbytes
   Step          Temp          E_pair         E_mol          TotEng         Press     
         0   49.656342      2.2244944e+15  0              2.2244944e+15  2.5490829e+15
        36   49.656342      1.6234783e-06  0              73.794844      14.094223    
Loop time of 0.00129995 on 1 procs for 36 steps with 108 atoms

377.1% CPU use with 1 MPI tasks x 1 OpenMP threads

Minimization stats:
  Stopping criterion = quadratic factors are zero
  Energy initial, next-to-last, final = 
    2.22449443251732e+15 1.6234782662743e-06 1.6234782662743e-06
  Force two-norm initial, final = 8.418491e+19 0.63617541
  Force max component initial, final = 5.6530199e+19 0.39624968
  Final line search alpha, max atom move = 0.007964249 0.0031558312
  Iterations, force evaluations = 36 136

MPI task timing breakdown:
Section |  min time  |  avg time  |  max time  |%varavg| %total
---------------------------------------------------------------
Pair    | 0.00029391 | 0.00029391 | 0.00029391 |   0.0 | 22.61
Neigh   | 0.00040031 | 0.00040031 | 0.00040031 |   0.0 | 30.79
Comm    | 0.00027383 | 0.00027383 | 0.00027383 |   0.0 | 21.06
Output  | 0          | 0          | 0          |   0.0 |  0.00
Modify  | 0          | 0          | 0          |   0.0 |  0.00
Other   |            | 0.0003319  |            |       | 25.53

Nlocal:            108 ave         108 max         108 min
Histogram: 1 0 0 0 0 0 0 0 0 0
Nghost:            168 ave         168 max         168 min
Histogram: 1 0 0 0 0 0 0 0 0 0
Neighs:            226 ave         226 max         226 min
Histogram: 1 0 0 0 0 0 0 0 0 0

Total # of neighbors = 226
Ave neighs/atom = 2.0925926
Neighbor list builds = 9
Dangerous builds = 0

thermo_style custom step temp ke pe etotal
thermo 500
timestep 0.001
#dump    id all custom 5000 out_lan_${outfile}.lammpstrj id type radius mass xu yu zu vx vy vz fx fy fz
dump    id all custom 5000 out_lan_${outfile}.lammpstrj id type radius mass x y z
dump    id all custom 5000 out_lan_1708803569.lammpstrj id type radius mass x y z
run 100000
Generated 0 of 0 mixed pair_coeff terms from geometric mixing rule
Per MPI rank memory allocation (min/avg/max) = 4.324 | 4.324 | 4.324 Mbytes
   Step          Temp          KinEng         PotEng         TotEng    
        36   49.656342      73.794842      1.6234783e-06  73.794844    
       500   1.0828843      1.6092864      0.11379534     1.7230817    
      1000   0.98899115     1.4697507      0.18585896     1.6556097    
      1500   0.87378299     1.2985386      0.24685317     1.5453918    
      2000   0.98769212     1.4678202      0.066871531    1.5346918    
      2500   1.1581015      1.7210675      0.14017036     1.8612378    
      3000   0.84660061     1.2581426      0.097470027    1.3556126    
      3500   0.9855853      1.4646893      0.094463979    1.5591532    
      4000   0.99282013     1.475441       0.097945087    1.5733861    
      4500   0.94479715     1.4040735      0.12121502     1.5252886    
      5000   1.0098062      1.5006841      0.10315836     1.6038425    
      5500   1.0807051      1.6060478      0.021937496    1.6279853    
      6000   1.0144795      1.5076293      0.092388166    1.6000174    
      6500   1.0485015      1.5581898      0.11047022     1.66866      
      7000   1.1199487      1.6643682      0.13668696     1.8010552    
      7500   0.97379109     1.4471618      0.056578556    1.5037403    
      8000   1.1020891      1.6378269      0.055815436    1.6936423    
      8500   1.0806476      1.6059623      0.11540782     1.7213702    
      9000   0.99238049     1.4747877      0.082479813    1.5572675    
      9500   0.93716868     1.3927368      0.12875545     1.5214922    
     10000   0.99829403     1.4835758      0.084595787    1.5681716    
     10500   0.96578416     1.4352626      0.065896677    1.5011593    
     11000   1.0092369      1.4998381      0.077859853    1.577698     
     11500   0.9525803      1.4156402      0.058974987    1.4746152    
     12000   0.91504403     1.3598571      0.046201973    1.4060591    
     12500   0.95140465     1.413893       0.08283354     1.4967266    
     13000   1.0096506      1.500453       0.057101095    1.5575541    
     13500   1.1291533      1.6780473      0.11874824     1.7967955    
     14000   1.0027493      1.4901968      0.083540455    1.5737373    
     14500   1.001694       1.4886286      0.091692127    1.5803207    
     15000   1.1421322      1.6973354      0.066379914    1.7637153    
     15500   0.92553539     1.3754484      0.12339973     1.4988482    
     16000   1.0377266      1.5421771      0.058762637    1.6009397    
     16500   1.046232       1.554817       0.17510254     1.7299195    
     17000   1.0011121      1.4877638      0.054958124    1.5427219    
     17500   0.95242251     1.4154057      0.094558699    1.5099644    
     18000   1.0727345      1.5942026      0.063639141    1.6578417    
     18500   0.99376846     1.4768504      0.14063607     1.6174864    
     19000   1.0049022      1.4933963      0.1193365      1.6127328    
     19500   1.0053856      1.4941147      0.072845849    1.5669606    
     20000   0.96357789     1.4319838      0.064971282    1.4969551    
     20500   1.0937662      1.6254581      0.071490973    1.6969491    
     21000   0.96673555     1.4366764      0.06650185     1.5031783    
     21500   0.92394877     1.3730905      0.086399628    1.4594902    
     22000   0.88241368     1.3113648      0.047893228    1.359258     
     22500   0.8727444      1.2969952      0.064911078    1.3619062    
     23000   1.1790719      1.7522319      0.044100336    1.7963322    
     23500   1.044924       1.5528732      0.089394262    1.6422674    
     24000   1.0010501      1.4876717      0.076750603    1.5644223    
     24500   1.0060581      1.4951141      0.063325535    1.5584397    
     25000   0.96693426     1.4369717      0.07784954     1.5148213    
     25500   1.0380921      1.5427202      0.058313227    1.6010334    
     26000   0.92097636     1.3686732      0.064590269    1.4332635    
     26500   1.0294961      1.5299455      0.04269785     1.5726434    
     27000   0.96627616     1.4359937      0.056953264    1.492947     
     27500   0.98469656     1.4633685      0.060906077    1.5242746    
     28000   1.0249736      1.5232247      0.026316283    1.549541     
     28500   1.0688419      1.5884178      0.065510996    1.6539288    
     29000   1.0014752      1.4883034      0.068028665    1.5563321    
     29500   1.0756662      1.5985594      0.085599457    1.6841589    
     30000   1.0323678      1.5342133      0.069150372    1.6033636    
     30500   1.0526601      1.5643698      0.064978723    1.6293486    
     31000   1.0779036      1.6018845      0.019781818    1.6216663    
     31500   1.0282676      1.5281199      0.013159854    1.5412797    
     32000   1.0487748      1.5585959      0.058831837    1.6174278    
     32500   0.92271976     1.3712641      0.13393791     1.505202     
     33000   1.0175134      1.512138       0.076463987    1.588602     
     33500   1.0673021      1.5861295      0.046359713    1.6324892    
     34000   0.99357201     1.4765584      0.073316713    1.5498751    
     34500   1.0698072      1.5898523      0.05961933     1.6494717    
     35000   1.0545901      1.567238       0.07838688     1.6456249    
     35500   0.96038177     1.427234       0.10434597     1.53158      
     36000   0.89952745     1.3367977      0.10542932     1.4422271    
     36500   0.99599747     1.4801629      0.035098341    1.5152613    
     37000   1.0160408      1.5099496      0.086636678    1.5965862    
     37500   0.92809857     1.3792576      0.054419736    1.4336773    
     38000   1.0080381      1.4980566      0.038595648    1.5366523    
     38500   1.0321165      1.5338398      0.04171256     1.5755524    
     39000   1.034625       1.5375677      0.028820676    1.5663884    
     39500   1.1002034      1.6350245      0.028387818    1.6634123    
     40000   1.0675047      1.5864305      0.079831467    1.666262     
     40500   1.0235471      1.5211047      0.061716194    1.5828208    
     41000   1.0614894      1.5774912      0.058954384    1.6364456    
     41500   0.9495291      1.4111058      0.054311349    1.4654171    
     42000   1.1385311      1.6919838      0.032358453    1.7243422    
     42500   0.93158423     1.3844377      0.030710077    1.4151478    
     43000   0.93460878     1.3889325      0.018303253    1.4072357    
     43500   1.0315309      1.5329695      0.017194513    1.550164     
     44000   1.0910946      1.6214878      0.019599484    1.6410873    
     44500   0.9861816      1.4655754      0.049914009    1.5154894    
     45000   1.0960006      1.6287786      0.03480077     1.6635794    
     45500   0.98886956     1.46957        0.055386278    1.5249563    
     46000   0.99016704     1.4714982      0.062319211    1.5338175    
     46500   1.0728695      1.5944032      0.0304569      1.6248601    
     47000   1.1071243      1.6453097      0.080311642    1.7256213    
     47500   1.0273543      1.5267626      0.11889395     1.6456566    
     48000   1.0044033      1.4926549      0.015159739    1.5078146    
     48500   1.0128203      1.5051636      0.039937467    1.545101     
     49000   0.99035791     1.4717819      0.020581701    1.4923636    
     49500   0.94156344     1.3992679      0.031648171    1.4309161    
     50000   0.91975178     1.3668533      0.0075345858   1.3743879    
     50500   0.90052049     1.3382735      0.025409472    1.363683     
     51000   0.87187632     1.2957051      0.047406043    1.3431111    
     51500   1.1255544      1.6726989      0.093026558    1.7657254    
     52000   0.95586116     1.4205159      0.085322004    1.5058379    
     52500   1.0033242      1.4910512      0.042959834    1.534011     
     53000   0.93402698     1.3880679      0.048085908    1.4361538    
     53500   1.0018466      1.4888554      0.040583969    1.5294393    
     54000   1.086968       1.6153552      0.018710959    1.6340661    
     54500   1.0650004      1.582709       0.049851805    1.6325608    
     55000   0.93786132     1.3937661      0.047127249    1.4408934    
     55500   0.90975002     1.3519896      0.053182614    1.4051722    
     56000   1.0717731      1.592774       0.054369292    1.6471433    
     56500   1.0020032      1.489088       0.025987544    1.5150756    
     57000   0.99669234     1.4811956      0.061371566    1.5425671    
     57500   1.0051736      1.4937996      0.036478858    1.5302784    
     58000   0.95797335     1.4236548      0.027586945    1.4512418    
     58500   1.05994        1.5751886      0.064606655    1.6397953    
     59000   0.940227       1.3972818      0.052433848    1.4497156    
     59500   1.0168403      1.5111377      0.05046255     1.5616003    
     60000   0.89629601     1.3319955      0.055360082    1.3873555    
     60500   0.8554521      1.2712969      0.038976916    1.3102738    
     61000   1.0171249      1.5115606      0.023466932    1.5350275    
     61500   0.91448369     1.3590244      0.09314733     1.4521717    
     62000   1.145968       1.7030358      0.053023346    1.7560591    
     62500   0.96774793     1.4381809      0.075929672    1.5141106    
     63000   1.0004261      1.4867443      0.067701345    1.5544457    
     63500   1.1445978      1.7009995      0.076687403    1.7776869    
     64000   1.0870487      1.6154752      0.076576463    1.6920517    
     64500   0.93462707     1.3889597      0.069541648    1.4585013    
     65000   0.95764526     1.4231673      0.067734262    1.4909015    
     65500   1.1055024      1.6428994      0.029821257    1.6727207    
     66000   1.0954265      1.6279255      0.072830531    1.7007561    
     66500   1.1054052      1.6427549      0.065791837    1.7085467    
     67000   0.98919965     1.4700606      0.074633914    1.5446945    
     67500   1.081579       1.6073466      0.069189295    1.6765359    
     68000   0.97632795     1.4509318      0.039316579    1.4902484    
     68500   0.92146741     1.369403       0.10849044     1.4778934    
     69000   0.93260259     1.3859511      0.08294863     1.4688997    
     69500   1.0441075      1.5516597      0.11660611     1.6682658    
     70000   1.1128222      1.6537774      0.073110663    1.726888     
     70500   0.92691624     1.3775005      0.06187071     1.4393712    
     71000   0.99346729     1.4764028      0.074934471    1.5513372    
     71500   0.97988293     1.4562149      0.091964024    1.5481789    
     72000   0.97736842     1.4524781      0.032547337    1.4850254    
     72500   0.98282953     1.4605939      0.081661416    1.5422553    
     73000   0.93420361     1.3883304      0.10599274     1.4943231    
     73500   1.0226767      1.5198112      0.060859561    1.5806708    
     74000   0.95876652     1.4248336      0.111454       1.5362876    
     74500   0.91819115     1.3645341      0.099745997    1.4642801    
     75000   0.8695637      1.2922683      0.057772096    1.3500404    
     75500   0.9401886      1.3972247      0.070927887    1.4681526    
     76000   0.99863955     1.4840893      0.08454604     1.5686354    
     76500   1.2262407      1.8223299      0.043590019    1.8659199    
     77000   1.1124844      1.6532755      0.12991058     1.783186     
     77500   0.92226992     1.3705956      0.056225592    1.4268212    
     78000   1.031922       1.5335507      0.071084873    1.6046356    
     78500   1.1102328      1.6499292      0.071461601    1.7213909    
     79000   0.89768819     1.3340644      0.04327596     1.3773403    
     79500   1.1373742      1.6902644      0.079449476    1.7697139    
     80000   0.93228436     1.3854781      0.06948239     1.4549605    
     80500   0.9581336      1.423893       0.05986315     1.4837561    
     81000   1.0484548      1.5581203      0.064867949    1.6229883    
     81500   1.060133       1.5754754      0.058729379    1.6342048    
     82000   1.0071755      1.4967747      0.057979853    1.5547545    
     82500   0.90699308     1.3478925      0.085386348    1.4332788    
     83000   0.91045124     1.3530317      0.094340907    1.4473726    
     83500   0.96546769     1.4347923      0.060080703    1.494873     
     84000   1.010553       1.501794       0.13007544     1.6318695    
     84500   1.1236574      1.6698798      0.060918522    1.7307983    
     85000   1.0072944      1.4969514      0.057114008    1.5540654    
     85500   1.0097391      1.5005845      0.11635566     1.6169402    
     86000   1.0195728      1.5151984      0.079040025    1.5942385    
     86500   1.0036994      1.4916089      0.053208978    1.5448178    
     87000   1.0056342      1.4944841      0.078605193    1.5730893    
     87500   1.1648964      1.7311655      0.093773175    1.8249387    
     88000   1.0519969      1.5633843      0.030416474    1.5938008    
     88500   0.99199283     1.4742116      0.083257494    1.5574691    
     89000   0.91950138     1.3664812      0.12346712     1.4899483    
     89500   1.0331593      1.5353895      0.12259946     1.6579889    
     90000   1.0142641      1.5073091      0.0563924      1.5637015    
     90500   0.95425094     1.4181229      0.1184863      1.5366092    
     91000   1.0318329      1.5334183      0.03864341     1.5720617    
     91500   1.0017524      1.4887153      0.068926853    1.5576422    
     92000   0.99691259     1.4815229      0.090141052    1.5716639    
     92500   1.0164859      1.5106111      0.026666117    1.5372772    
     93000   0.95504907     1.419309       0.080844418    1.5001535    
     93500   1.0697804      1.5898126      0.091365011    1.6811776    
     94000   1.0062498      1.495399       0.019844582    1.5152436    
     94500   1.0430448      1.5500805      0.053161409    1.6032419    
     95000   1.019379       1.5149105      0.071634774    1.5865452    
     95500   1.0501216      1.5605974      0.033940115    1.5945375    
     96000   1.0577385      1.571917       0.12161368     1.6935307    
     96500   0.81771514     1.2152156      0.057655707    1.2728713    
     97000   1.0061136      1.4951966      0.047731257    1.5429279    
     97500   1.0562753      1.5697424      0.062526251    1.6322687    
     98000   0.85887059     1.2763771      0.067721952    1.3440991    
     98500   1.0203754      1.5163913      0.04601931     1.5624106    
     99000   1.1101591      1.6498198      0.091025134    1.7408449    
     99500   1.0683118      1.58763        0.059722225    1.6473523    
    100000   0.85336551     1.268196       0.05225319     1.3204492    
    100036   0.9100092      1.3523748      0.041230544    1.3936053    
Loop time of 0.760021 on 1 procs for 100000 steps with 108 atoms

Performance: 11368102.955 tau/day, 131575.266 timesteps/s, 14.210 Matom-step/s
131.8% CPU use with 1 MPI tasks x 1 OpenMP threads

MPI task timing breakdown:
Section |  min time  |  avg time  |  max time  |%varavg| %total
---------------------------------------------------------------
Pair    | 0.065849   | 0.065849   | 0.065849   |   0.0 |  8.66
Neigh   | 0.010069   | 0.010069   | 0.010069   |   0.0 |  1.32
Comm    | 0.12285    | 0.12285    | 0.12285    |   0.0 | 16.16
Output  | 0.0039114  | 0.0039114  | 0.0039114  |   0.0 |  0.51
Modify  | 0.52806    | 0.52806    | 0.52806    |   0.0 | 69.48
Other   |            | 0.02929    |            |       |  3.85

Nlocal:            108 ave         108 max         108 min
Histogram: 1 0 0 0 0 0 0 0 0 0
Nghost:            181 ave         181 max         181 min
Histogram: 1 0 0 0 0 0 0 0 0 0
Neighs:            183 ave         183 max         183 min
Histogram: 1 0 0 0 0 0 0 0 0 0

Total # of neighbors = 183
Ave neighs/atom = 1.6944444
Neighbor list builds = 295
Dangerous builds = 0

write_data data.${outfile} nocoeff nofix
write_data data.1708803569 nocoeff nofix
System init for write_data ...
Generated 0 of 0 mixed pair_coeff terms from geometric mixing rule
Total wall time: 0:00:00
