LAMMPS (21 Nov 2023)
OMP_NUM_THREADS environment is not set. Defaulting to 1 thread. (src/comm.cpp:98)
  using 1 OpenMP thread(s) per MPI task
###variable outfile string L15.17
###variable L equal 15.17

units lj

newton off
atom_style      sphere
boundary        p p p
comm_modify     mode single vel yes


region      boxid block 0.0     $L      0.0       $L      0.0       $L
region      boxid block 0.0     7.224      0.0       $L      0.0       $L
region      boxid block 0.0     7.224      0.0       7.224      0.0       $L
region      boxid block 0.0     7.224      0.0       7.224      0.0       7.224
#create_box  1 boxid
include create_box.in
create_box 1 boxid
Created orthogonal box = (0 0 0) to (7.224 7.224 7.224)
  1 by 1 by 1 MPI processor grid


######
include create_np.in
create_atoms 1 random 108 4603 boxid
Created 108 atoms
  using lattice units in orthogonal box = (0 0 0) to (7.224 7.224 7.224)
  create_atoms CPU = 0.000 seconds
velocity    all create 1.0 87287 dist gaussian

#####
include particles.in
set type 1 diameter 1.0
Setting atom values ...
  108 settings made for diameter
set type 1 mass 26.0
Setting atom values ...
  108 settings made for mass

###
fix 1 all langevin 1.0 1.0 0.1 12345
fix 2 all nve/sphere

###
pair_style lj/cut 1.
include pots_lj_lan.in
pair_coeff 1 1 10.0 1.0 1.122462048309373
pair_modify shift yes



minimize          1.0e-4 1.0e-6 1000 1000
Generated 0 of 0 mixed pair_coeff terms from geometric mixing rule
Neighbor list info ...
  update: every = 1 steps, delay = 0 steps, check = yes
  max neighbors/atom: 2000, page size: 100000
  master list distance cutoff = 1.422462
  ghost atom cutoff = 1.422462
  binsize = 0.71123102, bins = 11 11 11
  1 neighbor lists, perpetual/occasional/extra = 1 0 0
  (1) pair lj/cut, perpetual
      attributes: half, newton off
      pair build: half/bin/newtoff
      stencil: full/bin/3d
      bin: standard
Per MPI rank memory allocation (min/avg/max) = 5.449 | 5.449 | 5.449 Mbytes
   Step          Temp          E_pair         E_mol          TotEng         Press     
         0   49.656342      1.4177362e+09  0              1.4177363e+09  1.6246149e+09
        26   49.656342      8.7608306e-06  0              73.794851      14.094842    
Loop time of 0.00109845 on 1 procs for 26 steps with 108 atoms

638.8% CPU use with 1 MPI tasks x 1 OpenMP threads

Minimization stats:
  Stopping criterion = quadratic factors are zero
  Energy initial, next-to-last, final = 
      1417736198.32056 8.76083062592467e-06 8.76083062592467e-06
  Force two-norm initial, final = 1.5627424e+13 1.4871499
  Force max component initial, final = 6.8164721e+12 0.79071995
  Final line search alpha, max atom move = 0.0019954602 0.0015778502
  Iterations, force evaluations = 26 86

MPI task timing breakdown:
Section |  min time  |  avg time  |  max time  |%varavg| %total
---------------------------------------------------------------
Pair    | 0.00017469 | 0.00017469 | 0.00017469 |   0.0 | 15.90
Neigh   | 0.00049152 | 0.00049152 | 0.00049152 |   0.0 | 44.75
Comm    | 0.00022503 | 0.00022503 | 0.00022503 |   0.0 | 20.49
Output  | 0          | 0          | 0          |   0.0 |  0.00
Modify  | 0          | 0          | 0          |   0.0 |  0.00
Other   |            | 0.0002072  |            |       | 18.86

Nlocal:            108 ave         108 max         108 min
Histogram: 1 0 0 0 0 0 0 0 0 0
Nghost:            185 ave         185 max         185 min
Histogram: 1 0 0 0 0 0 0 0 0 0
Neighs:            248 ave         248 max         248 min
Histogram: 1 0 0 0 0 0 0 0 0 0

Total # of neighbors = 248
Ave neighs/atom = 2.2962963
Neighbor list builds = 12
Dangerous builds = 3

thermo_style custom step temp ke pe etotal
thermo 500
timestep 0.001
#dump    id all custom 5000 out_lan_${outfile}.lammpstrj id type radius mass xu yu zu vx vy vz fx fy fz
dump    id all custom 5000 out_lan_${outfile}.lammpstrj id type radius mass x y z
dump    id all custom 5000 out_lan_1708718292.lammpstrj id type radius mass x y z
run 100000
Generated 0 of 0 mixed pair_coeff terms from geometric mixing rule
Per MPI rank memory allocation (min/avg/max) = 4.324 | 4.324 | 4.324 Mbytes
   Step          Temp          KinEng         PotEng         TotEng    
        26   49.656342      73.794842      8.7608306e-06  73.794851    
       500   1.0514346      1.5625487      0.22010998     1.7826587    
      1000   0.9822539      1.4597384      0.17741464     1.6371531    
      1500   0.99290142     1.4755618      0.126092       1.6016538    
      2000   0.92100865     1.3687212      0.10997434     1.4786955    
      2500   1.1792085      1.7524349      0.10668198     1.8591169    
      3000   0.88007928     1.3078956      0.081692557    1.3895882    
      3500   1.0167293      1.5109727      0.10806896     1.6190416    
      4000   0.93992806     1.3968375      0.10623368     1.5030712    
      4500   1.0200674      1.5159335      0.10310061     1.6190341    
      5000   1.0384527      1.5432562      0.086202811    1.629459     
      5500   1.0510115      1.5619198      0.14059644     1.7025163    
      6000   0.99950034     1.4853686      0.094742287    1.5801109    
      6500   1.0434669      1.5507078      0.14999526     1.7007031    
      7000   1.0722534      1.5934877      0.073909396    1.6673971    
      7500   1.0041338      1.4922545      0.077630653    1.5698851    
      8000   1.0043324      1.4925496      0.12089921     1.6134488    
      8500   1.062281       1.5786675      0.11153886     1.6902064    
      9000   0.95371286     1.4173233      0.11935112     1.5366744    
      9500   1.0326614      1.5346495      0.07489378     1.6095433    
     10000   0.97367531     1.4469897      0.14086156     1.5878513    
     10500   0.94729766     1.4077896      0.045031475    1.452821     
     11000   0.96303619     1.4311788      0.068457546    1.4996363    
     11500   0.85645305     1.2727844      0.092104126    1.3648885    
     12000   0.95781811     1.4234241      0.10215181     1.5255759    
     12500   0.8329325      1.2378302      0.074595752    1.312426     
     13000   0.95651197     1.4214831      0.12657642     1.5480595    
     13500   1.1013936      1.6367933      0.10480067     1.7415939    
     14000   1.0316798      1.5331909      0.12657306     1.6597639    
     14500   0.95344494     1.4169251      0.056322402    1.4732475    
     15000   1.0449387      1.552895       0.11415745     1.6670525    
     15500   0.92639687     1.3767287      0.10182934     1.478558     
     16000   0.91311485     1.3569901      0.11868617     1.4756763    
     16500   1.0347846      1.5378049      0.050349606    1.5881545    
     17000   1.0290194      1.5292372      0.048483496    1.5777207    
     17500   0.95704752     1.4222789      0.055758038    1.478037     
     18000   1.0328491      1.5349285      0.038185291    1.5731137    
     18500   1.0149509      1.5083298      0.067412296    1.5757421    
     19000   0.97619796     1.4507386      0.077434088    1.5281727    
     19500   1.0535615      1.5657095      0.037522422    1.6032319    
     20000   1.0127738      1.5050943      0.093534576    1.5986289    
     20500   1.0485749      1.5582989      0.086174847    1.6444737    
     21000   1.0881688      1.6171397      0.032558623    1.6496983    
     21500   0.94669329     1.4068914      0.070660711    1.4775521    
     22000   0.94008028     1.3970638      0.078735919    1.4757997    
     22500   0.92323122     1.3720242      0.06205592     1.4340801    
     23000   1.087994       1.61688        0.051104332    1.6679844    
     23500   1.0625453      1.5790604      0.086353479    1.6654138    
     24000   0.99901009     1.48464        0.12713859     1.6117786    
     24500   1.0150136      1.5084229      0.050064152    1.5584871    
     25000   0.99676399     1.481302       0.075575151    1.5568772    
     25500   0.98892938     1.4696589      0.082978617    1.5526376    
     26000   0.98527657     1.4642305      0.11704807     1.5812785    
     26500   1.0305841      1.5315625      0.089620037    1.6211825    
     27000   0.98011971     1.4565668      0.078486451    1.5350532    
     27500   1.0372738      1.5415041      0.10341308     1.6449172    
     28000   0.9837496      1.4619612      0.093574447    1.5555357    
     28500   1.0269184      1.5261148      0.089332106    1.6154469    
     29000   1.1066506      1.6446058      0.070815994    1.7154218    
     29500   1.0737859      1.5957652      0.049961335    1.6457265    
     30000   1.1183343      1.661969       0.11066909     1.7726381    
     30500   0.99666851     1.4811602      0.065479903    1.5466401    
     31000   0.98996092     1.4711919      0.053738549    1.5249305    
     31500   0.96182123     1.4293732      0.047548838    1.476922     
     32000   1.0091481      1.4997062      0.081189065    1.5808953    
     32500   0.9141425      1.3585173      0.063731213    1.4222485    
     33000   1.0935361      1.6251161      0.049669792    1.6747859    
     33500   1.0240366      1.5218321      0.11560394     1.6374361    
     34000   0.94992911     1.4117002      0.075144176    1.4868444    
     34500   1.1443834      1.7006809      0.081124756    1.7818056    
     35000   1.0292966      1.5296491      0.035073267    1.5647223    
     35500   1.0548274      1.5675907      0.050376432    1.6179671    
     36000   0.95137334     1.4138465      0.03260735     1.4464538    
     36500   0.97893416     1.4548049      0.01490039     1.4697053    
     37000   1.0261996      1.5250467      0.066918888    1.5919656    
     37500   0.94444629     1.4035521      0.049184774    1.4527369    
     38000   1.0408296      1.5467885      0.054418925    1.6012074    
     38500   1.0405219      1.5463312      0.056838607    1.6031698    
     39000   1.0775091      1.6012983      0.068716374    1.6700147    
     39500   1.1399213      1.6940497      0.07924144     1.7732912    
     40000   1.0826325      1.6089122      0.048110542    1.6570228    
     40500   0.94730704     1.4078035      0.15646341     1.5642669    
     41000   1.0217297      1.5184038      0.096739246    1.615143     
     41500   0.98876768     1.4694186      0.03084024     1.5002589    
     42000   1.1419571      1.6970752      0.020301296    1.7173765    
     42500   0.96909471     1.4401824      0.11885537     1.5590378    
     43000   0.9323308      1.3855472      0.075837855    1.461385     
     43500   1.0723965      1.5937003      0.020095643    1.613796     
     44000   1.0566953      1.5703667      0.055960869    1.6263275    
     44500   1.0257186      1.5243317      0.047120707    1.5714525    
     45000   1.013272       1.5058348      0.053202469    1.5590372    
     45500   0.97735156     1.452453       0.022183196    1.4746362    
     46000   0.90253765     1.3412712      0.017708163    1.3589794    
     46500   1.0421578      1.5487623      0.090761276    1.6395236    
     47000   1.04568        1.5539966      0.065252244    1.6192488    
     47500   0.96517813     1.4343619      0.043814023    1.478176     
     48000   0.98621169     1.4656201      0.050904983    1.5165251    
     48500   1.0706155      1.5910537      0.12484199     1.7158956    
     49000   1.0224602      1.5194895      0.070366208    1.5898557    
     49500   0.94126186     1.3988197      0.085099571    1.4839193    
     50000   0.96019391     1.4269548      0.05276008     1.4797149    
     50500   0.96464119     1.433564       0.088889088    1.5224531    
     51000   0.93484044     1.3892768      0.089885393    1.4791622    
     51500   1.1674518      1.734963       0.036751167    1.7717142    
     52000   0.88162935     1.3101992      0.069365727    1.3795649    
     52500   0.97839149     1.4539985      0.076979       1.5309775    
     53000   0.94406324     1.4029829      0.14060218     1.5435851    
     53500   0.97251686     1.4452681      0.072329517    1.5175976    
     54000   1.0188383      1.514107       0.062527065    1.576634     
     54500   1.0612289      1.5771041      0.049925729    1.6270298    
     55000   0.94744066     1.4080021      0.072503133    1.4805052    
     55500   0.89053044     1.3234272      0.077830749    1.4012579    
     56000   0.8925671      1.3264539      0.062346968    1.3888009    
     56500   0.85038463     1.2637661      0.11517677     1.3789428    
     57000   1.0166713      1.5108866      0.07426878     1.5851553    
     57500   1.0805958      1.6058854      0.0671253      1.6730107    
     58000   1.0847115      1.6120018      0.072735593    1.6847374    
     58500   1.0362075      1.5399195      0.056461656    1.5963812    
     59000   1.0003269      1.4865969      0.027401455    1.5139984    
     59500   0.97471502     1.4485348      0.10653227     1.5550671    
     60000   0.91046957     1.3530589      0.036726584    1.3897855    
     60500   0.79643784     1.1835951      0.082486161    1.2660813    
     61000   1.0217649      1.5184561      0.077662975    1.5961191    
     61500   0.94259549     1.4008016      0.071550856    1.4723525    
     62000   1.0290183      1.5292356      0.062851763    1.5920873    
     62500   0.93633278     1.3914945      0.056101955    1.4475965    
     63000   1.164572       1.7306834      0.027846011    1.7585294    
     63500   1.1299199      1.6791865      0.046351707    1.7255382    
     64000   1.1080399      1.6466704      0.039229904    1.6859003    
     64500   1.0180744      1.5129716      0.10727651     1.6202482    
     65000   0.96196488     1.4295867      0.07643303     1.5060197    
     65500   1.066337       1.5846953      0.065804132    1.6504994    
     66000   1.0255267      1.5240466      0.046669546    1.5707162    
     66500   1.0323414      1.534174       0.036796488    1.5709705    
     67000   0.95411904     1.4179269      0.1246666      1.5425935    
     67500   1.072712       1.5941692      0.073916092    1.6680853    
     68000   0.93628355     1.3914214      0.085342477    1.4767639    
     68500   0.96094381     1.4280693      0.073789913    1.5018592    
     69000   0.93181741     1.3847842      0.056554677    1.4413389    
     69500   0.98261255     1.4602714      0.08433439     1.5446058    
     70000   1.2356145      1.8362604      0.034616756    1.8708771    
     70500   0.94503106     1.4044212      0.075262685    1.4796838    
     71000   1.0340261      1.5366777      0.063096895    1.5997746    
     71500   0.99226114     1.4746103      0.078872644    1.553483     
     72000   1.0185198      1.5136336      0.070395572    1.5840292    
     72500   0.93207806     1.3851716      0.11503702     1.5002086    
     73000   0.93106114     1.3836603      0.10468972     1.48835      
     73500   0.95928401     1.4256026      0.13142103     1.5570237    
     74000   0.9935329      1.4765003      0.095649359    1.5721496    
     74500   0.87632621     1.3023181      0.062032633    1.3643508    
     75000   0.86553131     1.2862757      0.075273238    1.3615489    
     75500   0.98777409     1.4679421      0.072909363    1.5408514    
     76000   1.0638195      1.580954       0.043136916    1.6240909    
     76500   1.2058576      1.7920384      0.083877752    1.8759161    
     77000   1.1584438      1.7215762      0.078599352    1.8001756    
     77500   0.91784482     1.3640194      0.075432075    1.4394515    
     78000   1.0158417      1.5096536      0.045213066    1.5548666    
     78500   1.1448493      1.7013732      0.1081902      1.8095634    
     79000   0.88206684     1.3108493      0.040256802    1.3511061    
     79500   1.2296751      1.8274339      0.068899378    1.8963333    
     80000   0.94453428     1.4036829      0.071717656    1.4754005    
     80500   0.93029952     1.3825285      0.06230674     1.4448352    
     81000   1.0160805      1.5100085      0.04797138     1.5579799    
     81500   0.97785095     1.4531952      0.062013019    1.5152082    
     82000   0.9980589      1.4832264      0.10156649     1.5847929    
     82500   0.92093558     1.3686126      0.11142491     1.4800375    
     83000   0.95587422     1.4205353      0.036722453    1.4572578    
     83500   1.0185935      1.5137431      0.084568456    1.5983115    
     84000   1.0235479      1.5211059      0.02225874     1.5433647    
     84500   1.0447817      1.5526617      0.056203314    1.608865     
     85000   1.0062676      1.4954255      0.054080137    1.5495056    
     85500   0.94932801     1.4108069      0.02939444     1.4402013    
     86000   1.0742333      1.5964301      0.036059604    1.6324897    
     86500   1.0649931      1.582698       0.027182103    1.6098801    
     87000   1.017784       1.5125401      0.084151232    1.5966914    
     87500   1.1355582      1.6875657      0.10040798     1.7879737    
     88000   1.0791869      1.6037917      0.054350555    1.6581422    
     88500   1.0467484      1.5555845      0.046444167    1.6020286    
     89000   0.87462318     1.2997872      0.076790816    1.376578     
     89500   1.023456       1.5209693      0.10408111     1.6250504    
     90000   0.94571445     1.4054367      0.01681134     1.4222481    
     90500   0.88743378     1.3188252      0.058639009    1.3774642    
     91000   0.9618402      1.4294014      0.050542368    1.4799438    
     91500   0.96713919     1.4372763      0.055893637    1.4931699    
     92000   1.0114393      1.5031112      0.04915487     1.5522661    
     92500   0.99101051     1.4727517      0.087712432    1.5604642    
     93000   0.90328247     1.3423781      0.082460795    1.4248389    
     93500   1.0261144      1.5249201      0.08700479     1.6119249    
     94000   1.0049766      1.4935069      0.10003555     1.5935425    
     94500   1.0397703      1.5452142      0.10075045     1.6459646    
     95000   0.94987045     1.411613       0.076402864    1.4880159    
     95500   0.90327471     1.3423666      0.098952666    1.4413192    
     96000   0.99824671     1.4835055      0.087351015    1.5708565    
     96500   0.83363283     1.238871       0.067204381    1.3060754    
     97000   0.99275188     1.4753396      0.085624052    1.5609637    
     97500   1.0208445      1.5170884      0.050729543    1.567818     
     98000   0.88603781     1.3167506      0.080070574    1.3968212    
     98500   1.0010522      1.4876748      0.040049345    1.5277241    
     99000   1.2162376      1.8074642      0.059757063    1.8672212    
     99500   1.1096743      1.6490993      0.036924828    1.6860242    
    100000   0.7837745      1.164776       0.052923143    1.2176991    
    100026   0.885316       1.3156779      0.049454426    1.3651324    
Loop time of 0.779247 on 1 procs for 100000 steps with 108 atoms

Performance: 11087622.547 tau/day, 128328.965 timesteps/s, 13.860 Matom-step/s
117.1% CPU use with 1 MPI tasks x 1 OpenMP threads

MPI task timing breakdown:
Section |  min time  |  avg time  |  max time  |%varavg| %total
---------------------------------------------------------------
Pair    | 0.069322   | 0.069322   | 0.069322   |   0.0 |  8.90
Neigh   | 0.010135   | 0.010135   | 0.010135   |   0.0 |  1.30
Comm    | 0.13756    | 0.13756    | 0.13756    |   0.0 | 17.65
Output  | 0.0052441  | 0.0052441  | 0.0052441  |   0.0 |  0.67
Modify  | 0.52807    | 0.52807    | 0.52807    |   0.0 | 67.77
Other   |            | 0.02891    |            |       |  3.71

Nlocal:            108 ave         108 max         108 min
Histogram: 1 0 0 0 0 0 0 0 0 0
Nghost:            184 ave         184 max         184 min
Histogram: 1 0 0 0 0 0 0 0 0 0
Neighs:            163 ave         163 max         163 min
Histogram: 1 0 0 0 0 0 0 0 0 0

Total # of neighbors = 163
Ave neighs/atom = 1.5092593
Neighbor list builds = 296
Dangerous builds = 0

write_data data.${outfile} nocoeff nofix
write_data data.1708718292 nocoeff nofix
System init for write_data ...
Generated 0 of 0 mixed pair_coeff terms from geometric mixing rule
Total wall time: 0:00:00
