LAMMPS (21 Nov 2023)
OMP_NUM_THREADS environment is not set. Defaulting to 1 thread. (src/comm.cpp:98)
  using 1 OpenMP thread(s) per MPI task
###variable outfile string L15.17
###variable L equal 15.17

units lj

newton off
atom_style      sphere
boundary        p p p
comm_modify     mode single vel yes


region      boxid block 0.0     $L      0.0       $L      0.0       $L
region      boxid block 0.0     8.269402402813594      0.0       $L      0.0       $L
region      boxid block 0.0     8.269402402813594      0.0       8.269402402813594      0.0       $L
region      boxid block 0.0     8.269402402813594      0.0       8.269402402813594      0.0       8.269402402813594
#create_box  1 boxid
include create_box.in
create_box 1 boxid
Created orthogonal box = (0 0 0) to (8.2694024 8.2694024 8.2694024)
  1 by 1 by 1 MPI processor grid


######
include create_np.in
create_atoms 1 random 108 6799 boxid
Created 108 atoms
  using lattice units in orthogonal box = (0 0 0) to (8.2694024 8.2694024 8.2694024)
  create_atoms CPU = 0.000 seconds
velocity    all create 1.0 87287 dist gaussian

#####
include particles.in
set type 1 diameter 1.0
Setting atom values ...
  108 settings made for diameter
set type 1 mass 26.0
Setting atom values ...
  108 settings made for mass

###
fix 1 all langevin 1.0 1.0 0.1 12345
fix 2 all nve/sphere

###
pair_style lj/cut 1.
include pots_lj_lan.in
pair_coeff 1 1 10.0 1.0 1.122462048309373
pair_modify shift yes



minimize          1.0e-4 1.0e-6 1000 1000
Generated 0 of 0 mixed pair_coeff terms from geometric mixing rule
Neighbor list info ...
  update: every = 1 steps, delay = 0 steps, check = yes
  max neighbors/atom: 2000, page size: 100000
  master list distance cutoff = 1.422462
  ghost atom cutoff = 1.422462
  binsize = 0.71123102, bins = 12 12 12
  1 neighbor lists, perpetual/occasional/extra = 1 0 0
  (1) pair lj/cut, perpetual
      attributes: half, newton off
      pair build: half/bin/newtoff
      stencil: full/bin/3d
      bin: standard
Per MPI rank memory allocation (min/avg/max) = 5.452 | 5.452 | 5.452 Mbytes
   Step          Temp          E_pair         E_mol          TotEng         Press     
         0   49.656342      656804.99      0              656878.79      502060.81    
        17   49.656342      0.00033936189  0              73.795181      9.4048818    
Loop time of 0.000513352 on 1 procs for 17 steps with 108 atoms

304.1% CPU use with 1 MPI tasks x 1 OpenMP threads

Minimization stats:
  Stopping criterion = quadratic factors are zero
  Energy initial, next-to-last, final = 
      656804.991347483 0.000339361885085288 0.000339361885085288
  Force two-norm initial, final = 3.2866306e+09 9.4905156
  Force max component initial, final = 1.9811516e+09 2.8349181
  Final line search alpha, max atom move = 0.0022046492 0.00625
  Iterations, force evaluations = 17 47

MPI task timing breakdown:
Section |  min time  |  avg time  |  max time  |%varavg| %total
---------------------------------------------------------------
Pair    | 6.6403e-05 | 6.6403e-05 | 6.6403e-05 |   0.0 | 12.94
Neigh   | 0.00024073 | 0.00024073 | 0.00024073 |   0.0 | 46.89
Comm    | 9.8623e-05 | 9.8623e-05 | 9.8623e-05 |   0.0 | 19.21
Output  | 0          | 0          | 0          |   0.0 |  0.00
Modify  | 0          | 0          | 0          |   0.0 |  0.00
Other   |            | 0.0001076  |            |       | 20.96

Nlocal:            108 ave         108 max         108 min
Histogram: 1 0 0 0 0 0 0 0 0 0
Nghost:            155 ave         155 max         155 min
Histogram: 1 0 0 0 0 0 0 0 0 0
Neighs:            148 ave         148 max         148 min
Histogram: 1 0 0 0 0 0 0 0 0 0

Total # of neighbors = 148
Ave neighs/atom = 1.3703704
Neighbor list builds = 6
Dangerous builds = 0

thermo_style custom step temp ke pe etotal
thermo 500
timestep 0.001
#dump    id all custom 5000 out_lan_${outfile}.lammpstrj id type radius mass xu yu zu vx vy vz fx fy fz
dump    id all custom 5000 out_lan_${outfile}.lammpstrj id type radius mass x y z
dump    id all custom 5000 out_lan_1708803328.lammpstrj id type radius mass x y z
run 100000
Generated 0 of 0 mixed pair_coeff terms from geometric mixing rule
Per MPI rank memory allocation (min/avg/max) = 4.327 | 4.327 | 4.327 Mbytes
   Step          Temp          KinEng         PotEng         TotEng    
        17   49.656342      73.794842      0.00033936189  73.795181    
       500   1.0306143      1.5316073      0.16794341     1.6995507    
      1000   1.041125       1.5472274      0.14652716     1.6937546    
      1500   1.018707       1.5139118      0.15818687     1.6720986    
      2000   0.96090194     1.4280071      0.031745656    1.4597527    
      2500   1.1022462      1.6380603      0.02694949     1.6650098    
      3000   0.89449149     1.3293137      0.009516546    1.3388303    
      3500   1.0897298      1.6194596      0.039723453    1.659183     
      4000   1.0598459      1.5750488      0.067722287    1.6427711    
      4500   0.97537514     1.4495158      0.029137404    1.4786532    
      5000   0.98737225     1.4673449      0.01944162     1.4867865    
      5500   1.1233324      1.6693967      0.052062337    1.7214591    
      6000   0.94053303     1.3977366      0.030175335    1.4279119    
      6500   1.0171042      1.5115298      0.071776952    1.5833068    
      7000   1.0303226      1.5311739      0.041825796    1.5729997    
      7500   0.92821001     1.3794232      0.071934777    1.451358     
      8000   1.0481944      1.5577334      0.023399239    1.5811326    
      8500   1.1382001      1.6914918      0.03812028     1.7296121    
      9000   0.9439982      1.4028862      0.071180419    1.4740666    
      9500   1.1046358      1.6416115      0.010986629    1.6525981    
     10000   1.0546236      1.5672879      0.021750069    1.589038     
     10500   1.0149758      1.5083668      0.033257322    1.5416241    
     11000   0.98189402     1.4592036      0.028688052    1.4878917    
     11500   0.93142158     1.384196       0.02889205     1.413088     
     12000   0.97557599     1.4498143      0.067511264    1.5173256    
     12500   0.93789929     1.3938226      0.048942101    1.4427647    
     13000   0.96887047     1.4398492      0.019662753    1.4595119    
     13500   1.0664229      1.584823       0.14289561     1.7277186    
     14000   1.0513849      1.5624748      0.022976299    1.5854511    
     14500   0.97439037     1.4480524      0.031884799    1.4799372    
     15000   1.035464       1.5388146      0.031522731    1.5703374    
     15500   0.96598991     1.4355683      0.10232773     1.5378961    
     16000   0.94810713     1.4089925      0.029907297    1.4388998    
     16500   1.0401333      1.5457536      0.036870944    1.5826245    
     17000   0.97529634     1.4493987      0.017181674    1.4665804    
     17500   0.97595294     1.4503745      0.022788452    1.473163     
     18000   1.0277561      1.5273598      0.0566164      1.5839762    
     18500   1.0990193      1.6332648      0.050844408    1.6841092    
     19000   0.95386373     1.4175475      0.028512054    1.4460595    
     19500   1.1110589      1.6511569      0.026054375    1.6772113    
     20000   1.0587096      1.5733601      0.018685633    1.5920457    
     20500   1.0916563      1.6223225      0.040348051    1.6626706    
     21000   1.0146195      1.5078374      0.019161298    1.5269987    
     21500   0.9201049      1.3673781      0.029430936    1.396809     
     22000   1.0564234      1.5699625      0.036872747    1.6068353    
     22500   0.91376507     1.3579564      0.025241034    1.3831975    
     23000   1.0487735      1.5585939      0.037904605    1.5964985    
     23500   0.99294069     1.4756202      0.040421256    1.5160414    
     24000   1.0279201      1.5276035      0.046118241    1.5737217    
     24500   1.0296292      1.5301434      0.017191132    1.5473346    
     25000   0.87028004     1.2933328      0.08238115     1.375714     
     25500   0.98927312     1.4701698      0.03842476     1.5085945    
     26000   1.0082559      1.4983803      0.057008213    1.5553885    
     26500   1.0249621      1.5232076      0.013607144    1.5368147    
     27000   0.97146254     1.4437013      0.0030463829   1.4467477    
     27500   1.0438665      1.5513016      0.024865553    1.5761672    
     28000   0.99850475     1.483889       0.019147218    1.5030362    
     28500   1.0370397      1.5411562      0.015954371    1.5571106    
     29000   1.0748005      1.597273       0.033001582    1.6302745    
     29500   1.0707462      1.5912478      0.053428023    1.6446759    
     30000   1.013215       1.5057501      0.026926217    1.5326763    
     30500   1.0191244      1.5145321      0.066730169    1.5812622    
     31000   0.9517201      1.4143618      0.015841713    1.4302035    
     31500   0.96015604     1.4268986      0.055690573    1.4825891    
     32000   1.0715463      1.5924368      0.062678834    1.6551156    
     32500   0.98748403     1.467511       0.01815189     1.4856629    
     33000   1.0635641      1.5805745      0.044019244    1.6245937    
     33500   0.96626209     1.4359728      0.079115972    1.5150888    
     34000   0.98015115     1.4566135      0.021107487    1.477721     
     34500   1.0762399      1.5994121      0.020506133    1.6199182    
     35000   0.95825351     1.4240712      0.062447558    1.4865187    
     35500   0.97035021     1.4420482      0.047941811    1.48999      
     36000   0.95553286     1.420028       0.040243242    1.4602712    
     36500   0.94556129     1.4052091      0.049115026    1.4543242    
     37000   1.0968604      1.6300564      0.011603892    1.6416603    
     37500   0.95763424     1.4231509      0.023379609    1.4465305    
     38000   1.1136162      1.6549574      0.009634893    1.6645923    
     38500   1.062593       1.5791313      0.057042227    1.6361735    
     39000   1.0172572      1.5117573      0.033265874    1.5450232    
     39500   1.0615172      1.5775325      0.057636284    1.6351688    
     40000   1.1025473      1.6385078      0.025888087    1.6643959    
     40500   0.96718934     1.4373508      0.036395439    1.4737463    
     41000   1.0507617      1.5615486      0.041525999    1.6030746    
     41500   0.94436685     1.4034341      0.016744975    1.4201791    
     42000   1.0933897      1.6248985      0.039758314    1.6646569    
     42500   0.98212784     1.4595511      0.0093916188   1.4689427    
     43000   0.92684455     1.377394       0.036525724    1.4139197    
     43500   1.0700234      1.5901737      0.034081979    1.6242557    
     44000   1.0534873      1.5655992      0.01996911     1.5855683    
     44500   0.89794944     1.3344526      0.0071108984   1.3415635    
     45000   1.0704642      1.5908287      0.017259262    1.608088     
     45500   0.96585661     1.4353702      0.027722204    1.4630924    
     46000   0.86847332     1.2906478      0.052381997    1.3430298    
     46500   0.95260966     1.4156838      0.054156059    1.4698399    
     47000   1.1243716      1.6709411      0.044350772    1.7152919    
     47500   1.0939579      1.625743       0.06891408     1.6946571    
     48000   0.94526704     1.4047719      0.058953327    1.4637252    
     48500   0.97552881     1.4497442      0.038756018    1.4885002    
     49000   0.98264272     1.4603163      0.056598527    1.5169148    
     49500   0.92556959     1.3754993      0.069539284    1.4450385    
     50000   0.94617484     1.4061209      0.033943333    1.4400643    
     50500   0.95744099     1.4228637      0.029422588    1.4522863    
     51000   1.0337349      1.536245       0.065002647    1.6012476    
     51500   1.1236966      1.6699381      0.096878647    1.7668167    
     52000   0.99598302     1.4801414      0.01621823     1.4963597    
     52500   0.99735578     1.4821815      0.045983217    1.5281647    
     53000   0.9949912      1.4786675      0.048039858    1.5267073    
     53500   1.0409865      1.5470215      0.040968077    1.5879896    
     54000   1.0683839      1.5877371      0.02763241     1.6153695    
     54500   1.0534574      1.5655548      0.010968176    1.576523     
     55000   0.97055592     1.4423539      0.024295734    1.4666497    
     55500   0.92263978     1.3711452      0.047764683    1.4189099    
     56000   0.92604804     1.3762103      0.059447087    1.4356574    
     56500   0.94170364     1.3994762      0.014202954    1.4136792    
     57000   1.01545        1.5090715      0.032669392    1.5417409    
     57500   1.1003132      1.6351877      0.040290642    1.6754783    
     58000   1.0479109      1.5573121      0.048851698    1.6061638    
     58500   1.0587079      1.5733575      0.05273037     1.6260879    
     59000   1.0413069      1.5474978      0.046731531    1.5942293    
     59500   1.0206754      1.5168371      0.015805722    1.5326428    
     60000   0.95114584     1.4135084      0.025582675    1.4390911    
     60500   0.86943569     1.292078       0.049796755    1.3418748    
     61000   0.99481796     1.47841        0.036200109    1.5146101    
     61500   0.96352799     1.4319097      0.032085416    1.4639951    
     62000   1.0068559      1.4962998      0.045391461    1.5416913    
     62500   0.92779025     1.3787994      0.085983378    1.4647828    
     63000   1.182086       1.7567112      0.065301158    1.8220124    
     63500   1.0681388      1.5873729      0.019813344    1.6071862    
     64000   1.1314713      1.6814921      0.039212858    1.720705     
     64500   0.92396051     1.373108       0.0069014514   1.3800094    
     65000   0.92581482     1.3758637      0.048380065    1.4242438    
     65500   1.0312948      1.5326186      0.0239855      1.5566041    
     66000   0.98740763     1.4673974      0.012634181    1.4800316    
     66500   1.1097753      1.6492494      0.0062622524   1.6555116    
     67000   0.92108426     1.3688336      0.029493266    1.3983268    
     67500   1.0999248      1.6346104      0.038624854    1.6732353    
     68000   0.92962504     1.3815261      0.015033395    1.3965595    
     68500   0.94752243     1.4081236      0.030018503    1.4381421    
     69000   0.97310973     1.4461492      0.04718449     1.4933337    
     69500   0.99743794     1.4823036      0.022271282    1.5045749    
     70000   1.1631403      1.7285557      0.049018444    1.7775741    
     70500   0.86166121     1.2805243      0.012012441    1.2925367    
     71000   1.0593796      1.5743559      0.050594812    1.6249507    
     71500   0.98043395     1.4570338      0.032020618    1.4890544    
     72000   1.0032183      1.4908939      0.0115727      1.5024666    
     72500   1.0277055      1.5272845      0.049139611    1.5764241    
     73000   0.98607376     1.4654152      0.034618226    1.5000334    
     73500   0.92418134     1.3734362      0.056783527    1.4302197    
     74000   1.0213133      1.517785       0.019954015    1.537739     
     74500   0.89452521     1.3293639      0.030270877    1.3596347    
     75000   0.83886131     1.2466411      0.051425498    1.2980666    
     75500   0.8820279      1.3107915      0.10467567     1.4154671    
     76000   1.0588507      1.5735698      0.014297081    1.5878669    
     76500   1.1427601      1.6982685      0.055689194    1.7539577    
     77000   1.0972568      1.6306454      0.049248374    1.6798938    
     77500   0.94865211     1.4098024      0.031982481    1.4417849    
     78000   1.0460822      1.5545944      0.030811053    1.5854055    
     78500   1.1356285      1.6876701      0.046409589    1.7340797    
     79000   0.93183783     1.3848145      0.012219725    1.3970343    
     79500   1.0590743      1.573902       0.011758668    1.5856607    
     80000   0.95214511     1.4149934      0.031511269    1.4465047    
     80500   0.87669038     1.3028593      0.017896171    1.3207555    
     81000   0.96846005     1.4392392      0.02113574     1.460375     
     81500   1.0050855      1.4936688      0.024973576    1.5186423    
     82000   0.98838115     1.4688442      0.020979523    1.4898237    
     82500   0.96380912     1.4323274      0.015340953    1.4476684    
     83000   0.91868359     1.3652659      0.03367441     1.3989403    
     83500   1.079291       1.6039463      0.030946805    1.6348932    
     84000   0.94482186     1.4041103      0.035040376    1.4391506    
     84500   0.9180754      1.3643621      0.022103897    1.386466     
     85000   1.0360632      1.539705       0.064301292    1.6040063    
     85500   0.93520404     1.3898171      0.03418953     1.4240066    
     86000   1.0315386      1.532981       0.061493948    1.5944749    
     86500   1.0791479      1.6037336      0.067954218    1.6716878    
     87000   1.0295936      1.5300905      0.03256158     1.5626521    
     87500   1.1138609      1.655321       0.039440357    1.6947614    
     88000   1.0051486      1.4937625      0.059328418    1.553091     
     88500   1.0259291      1.5246447      0.037885604    1.5625303    
     89000   0.86475484     1.2851218      0.0095819476   1.2947037    
     89500   1.0233693      1.5208404      0.032120792    1.5529612    
     90000   1.0189669      1.514298       0.034932849    1.5492309    
     90500   0.84481401     1.2554875      0.068896407    1.3243839    
     91000   0.89805102     1.3346036      0.066006391    1.40061      
     91500   0.97993243     1.4562885      0.029934029    1.4862225    
     92000   1.0976402      1.6312152      0.065783469    1.6969987    
     92500   0.93809627     1.3941153      0.069277984    1.4633933    
     93000   0.98235363     1.4598867      0.020584664    1.4804713    
     93500   0.95640836     1.4213291      0.042801394    1.4641305    
     94000   1.0311802      1.5324483      0.046090633    1.5785389    
     94500   1.022598       1.5196943      0.06376973     1.583464     
     95000   0.97862981     1.4543526      0.019910922    1.4742636    
     95500   0.95180564     1.4144889      0.030731791    1.4452207    
     96000   1.1088204      1.6478303      0.033162782    1.6809931    
     96500   0.89948042     1.3367278      0.012128866    1.3488567    
     97000   1.0092184      1.4998107      0.032127217    1.5319379    
     97500   0.99175369     1.4738562      0.03672473     1.5105809    
     98000   0.9441285      1.4030799      0.037583825    1.4406637    
     98500   0.98706221     1.4668841      0.04412119     1.5110053    
     99000   1.1882458      1.7658653      0.080516568    1.8463819    
     99500   1.0723982      1.5937029      0.041821959    1.6355249    
    100000   0.82780041     1.2302034      0.01351982     1.2437232    
    100017   0.88895325     1.3210833      0.014648638    1.3357319    
Loop time of 0.724382 on 1 procs for 100000 steps with 108 atoms

Performance: 11927401.189 tau/day, 138048.625 timesteps/s, 14.909 Matom-step/s
123.5% CPU use with 1 MPI tasks x 1 OpenMP threads

MPI task timing breakdown:
Section |  min time  |  avg time  |  max time  |%varavg| %total
---------------------------------------------------------------
Pair    | 0.046186   | 0.046186   | 0.046186   |   0.0 |  6.38
Neigh   | 0.0088416  | 0.0088416  | 0.0088416  |   0.0 |  1.22
Comm    | 0.10886    | 0.10886    | 0.10886    |   0.0 | 15.03
Output  | 0.0043623  | 0.0043623  | 0.0043623  |   0.0 |  0.60
Modify  | 0.52664    | 0.52664    | 0.52664    |   0.0 | 72.70
Other   |            | 0.02949    |            |       |  4.07

Nlocal:            108 ave         108 max         108 min
Histogram: 1 0 0 0 0 0 0 0 0 0
Nghost:            150 ave         150 max         150 min
Histogram: 1 0 0 0 0 0 0 0 0 0
Neighs:            108 ave         108 max         108 min
Histogram: 1 0 0 0 0 0 0 0 0 0

Total # of neighbors = 108
Ave neighs/atom = 1
Neighbor list builds = 296
Dangerous builds = 0

write_data data.${outfile} nocoeff nofix
write_data data.1708803328 nocoeff nofix
System init for write_data ...
Generated 0 of 0 mixed pair_coeff terms from geometric mixing rule
Total wall time: 0:00:00
