LAMMPS (21 Nov 2023)
OMP_NUM_THREADS environment is not set. Defaulting to 1 thread. (src/comm.cpp:98)
  using 1 OpenMP thread(s) per MPI task
###variable outfile string L15.17
###variable L equal 15.17

units lj

newton off
atom_style      sphere
boundary        p p p
comm_modify     mode single vel yes


region      boxid block 0.0     $L      0.0       $L      0.0       $L
region      boxid block 0.0     8.2694      0.0       $L      0.0       $L
region      boxid block 0.0     8.2694      0.0       8.2694      0.0       $L
region      boxid block 0.0     8.2694      0.0       8.2694      0.0       8.2694
#create_box  1 boxid
include create_box.in
create_box 1 boxid
Created orthogonal box = (0 0 0) to (8.2694 8.2694 8.2694)
  1 by 1 by 1 MPI processor grid


######
include create_np.in
create_atoms 1 random 108 8772 boxid
Created 108 atoms
  using lattice units in orthogonal box = (0 0 0) to (8.2694 8.2694 8.2694)
  create_atoms CPU = 0.001 seconds
velocity    all create 1.0 87287 dist gaussian

#####
include particles.in
set type 1 diameter 1.0
Setting atom values ...
  108 settings made for diameter
set type 1 mass 26.0
Setting atom values ...
  108 settings made for mass

###
fix 1 all langevin 1.0 1.0 0.1 12345
fix 2 all nve/sphere

###
pair_style lj/cut 1.
include pots_lj_lan.in
pair_coeff 1 1 10.0 1.0 1.122462048309373
pair_modify shift yes



minimize          1.0e-4 1.0e-6 1000 1000
Generated 0 of 0 mixed pair_coeff terms from geometric mixing rule
Neighbor list info ...
  update: every = 1 steps, delay = 0 steps, check = yes
  max neighbors/atom: 2000, page size: 100000
  master list distance cutoff = 1.422462
  ghost atom cutoff = 1.422462
  binsize = 0.71123102, bins = 12 12 12
  1 neighbor lists, perpetual/occasional/extra = 1 0 0
  (1) pair lj/cut, perpetual
      attributes: half, newton off
      pair build: half/bin/newtoff
      stencil: full/bin/3d
      bin: standard
Per MPI rank memory allocation (min/avg/max) = 5.452 | 5.452 | 5.452 Mbytes
   Step          Temp          E_pair         E_mol          TotEng         Press     
         0   49.656342      6194463.1      0              6194536.9      4732924.7    
        23   49.656342      1.3003785e-05  0              73.794855      9.3971624    
Loop time of 0.000707647 on 1 procs for 23 steps with 108 atoms

478.1% CPU use with 1 MPI tasks x 1 OpenMP threads

Minimization stats:
  Stopping criterion = quadratic factors are zero
  Energy initial, next-to-last, final = 
       6194463.0760674 1.3003785083448e-05 1.3003785083448e-05
  Force two-norm initial, final = 4.4903071e+10 1.8089448
  Force max component initial, final = 2.0413467e+10 0.95956498
  Final line search alpha, max atom move = 0.012351171 0.011851752
  Iterations, force evaluations = 23 69

MPI task timing breakdown:
Section |  min time  |  avg time  |  max time  |%varavg| %total
---------------------------------------------------------------
Pair    | 0.00011829 | 0.00011829 | 0.00011829 |   0.0 | 16.72
Neigh   | 0.00030226 | 0.00030226 | 0.00030226 |   0.0 | 42.71
Comm    | 0.00012969 | 0.00012969 | 0.00012969 |   0.0 | 18.33
Output  | 0          | 0          | 0          |   0.0 |  0.00
Modify  | 0          | 0          | 0          |   0.0 |  0.00
Other   |            | 0.0001574  |            |       | 22.24

Nlocal:            108 ave         108 max         108 min
Histogram: 1 0 0 0 0 0 0 0 0 0
Nghost:            133 ave         133 max         133 min
Histogram: 1 0 0 0 0 0 0 0 0 0
Neighs:            159 ave         159 max         159 min
Histogram: 1 0 0 0 0 0 0 0 0 0

Total # of neighbors = 159
Ave neighs/atom = 1.4722222
Neighbor list builds = 7
Dangerous builds = 1

thermo_style custom step temp ke pe etotal
thermo 500
timestep 0.001
#dump    id all custom 5000 out_lan_${outfile}.lammpstrj id type radius mass xu yu zu vx vy vz fx fy fz
dump    id all custom 5000 out_lan_${outfile}.lammpstrj id type radius mass x y z
dump    id all custom 5000 out_lan_1708717881.lammpstrj id type radius mass x y z
run 100000
Generated 0 of 0 mixed pair_coeff terms from geometric mixing rule
Per MPI rank memory allocation (min/avg/max) = 4.327 | 4.327 | 4.327 Mbytes
   Step          Temp          KinEng         PotEng         TotEng    
        23   49.656342      73.794842      1.3003785e-05  73.794855    
       500   1.1320854      1.6824047      0.074968982    1.7573737    
      1000   0.99665788     1.4811444      0.10088614     1.5820305    
      1500   0.97935535     1.4554309      0.060678595    1.5161095    
      2000   0.94235083     1.400438       0.059836662    1.4602747    
      2500   1.1079821      1.6465845      0.087007293    1.7335918    
      3000   0.87520323     1.3006492      0.044312561    1.3449618    
      3500   1.0417283      1.548124       0.090830829    1.6389548    
      4000   1.0494766      1.5596388      0.061393254    1.621032     
      4500   1.0370598      1.5411861      0.13470879     1.6758949    
      5000   1.0523628      1.563928       0.058322657    1.6222507    
      5500   1.0340489      1.5367115      0.083644033    1.6203555    
      6000   0.96522517     1.4344318      0.021479005    1.4559109    
      6500   1.0571571      1.571053       0.10721331     1.6782663    
      7000   1.0156472      1.5093646      0.085738898    1.5951035    
      7500   1.0330252      1.5351903      0.039315062    1.5745053    
      8000   1.0301916      1.5309791      0.049660365    1.5806395    
      8500   1.0992393      1.6335917      0.07099915     1.7045909    
      9000   0.98231471     1.4598288      0.033147647    1.4929764    
      9500   1.075342       1.5980777      0.052415647    1.6504934    
     10000   1.0505441      1.5612253      0.04207336     1.6032987    
     10500   0.94698252     1.4073213      0.050234766    1.457556     
     11000   0.96230212     1.4300879      0.074821475    1.5049093    
     11500   0.89279234     1.3267886      0.037244865    1.3640335    
     12000   0.99889742     1.4844726      0.035419578    1.5198921    
     12500   0.87304641     1.297444       0.070261911    1.3677059    
     13000   0.96480092     1.4338014      0.018152698    1.4519541    
     13500   1.0652731      1.5831142      0.028389138    1.6115033    
     14000   1.073548       1.5954116      0.036950248    1.6323619    
     14500   1.0266196      1.5256708      0.011891336    1.5375621    
     15000   1.0480542      1.5575251      0.036229432    1.5937545    
     15500   0.91384177     1.3580704      0.076739053    1.4348095    
     16000   0.87373278     1.298464       0.12167419     1.4201382    
     16500   0.99480631     1.4783927      0.032524752    1.5109175    
     17000   1.0209298      1.5172151      0.039823666    1.5570388    
     17500   0.94366427     1.40239        0.021153258    1.4235432    
     18000   1.0433786      1.5505765      0.027989309    1.5785658    
     18500   1.0432073      1.550322       0.066415207    1.6167372    
     19000   0.99984676     1.4858834      0.021357149    1.5072405    
     19500   1.0804071      1.6056051      0.038490817    1.6440959    
     20000   1.0193162      1.5148171      0.030175513    1.5449926    
     20500   1.0982763      1.6321607      0.053861166    1.6860218    
     21000   1.1177828      1.6611495      0.021329642    1.6824791    
     21500   0.94154965     1.3992474      0.062347855    1.4615952    
     22000   0.97963686     1.4558492      0.0089844364   1.4648337    
     22500   0.90026938     1.3379003      0.044167138    1.3820675    
     23000   1.0719239      1.592998       0.026917808    1.6199158    
     23500   1.0229292      1.5201864      0.038305532    1.5584919    
     24000   1.0087396      1.4990991      0.016576834    1.515676     
     24500   0.93522227     1.3898442      0.074861975    1.4647062    
     25000   0.95348997     1.416992       0.0286661      1.4456581    
     25500   0.98270937     1.4604153      0.030466722    1.490882     
     26000   1.0151809      1.5086716      0.01284058     1.5215121    
     26500   1.0568235      1.5705572      0.022330504    1.5928877    
     27000   0.97312734     1.4461754      0.052197857    1.4983732    
     27500   1.0263164      1.5252202      0.018666077    1.5438863    
     28000   1.0234265      1.5209254      0.01784996     1.5387754    
     28500   1.0001943      1.4863998      0.03294297     1.5193428    
     29000   1.0818658      1.6077728      0.020517329    1.6282901    
     29500   1.0914079      1.6219534      0.073635042    1.6955884    
     30000   1.0999983      1.6347197      0.015491264    1.650211     
     30500   1.0230688      1.5203939      0.048645648    1.5690396    
     31000   0.98033877     1.4568923      0.050368938    1.5072613    
     31500   0.93664251     1.3919548      0.064869166    1.456824     
     32000   1.0643427      1.5817315      0.035183977    1.6169155    
     32500   0.94043086     1.3975848      0.014452371    1.4120371    
     33000   1.0878704      1.6166963      0.070113262    1.6868095    
     33500   1.0238379      1.5215368      0.030277418    1.5518143    
     34000   0.97248904     1.4452268      0.007659581    1.4528863    
     34500   1.1245997      1.6712802      0.032048906    1.7033291    
     35000   0.9718115      1.4442199      0.018315017    1.4625349    
     35500   1.0325139      1.5344304      0.020013278    1.5544436    
     36000   0.94937814     1.4108814      0.034007412    1.4448888    
     36500   0.95612013     1.4209008      0.029189397    1.4500902    
     37000   1.0619504      1.5781762      0.04675822     1.6249344    
     37500   0.96353601     1.4319216      0.027226959    1.4591485    
     38000   1.0721918      1.5933962      0.023712993    1.6171092    
     38500   1.0079725      1.4979591      0.10760123     1.6055603    
     39000   1.0492591      1.5593157      0.051598081    1.6109138    
     39500   1.0951457      1.6275082      0.093250259    1.7207585    
     40000   1.0984908      1.6324793      0.049613376    1.6820927    
     40500   0.96860431     1.4394536      0.041399923    1.4808535    
     41000   1.0702086      1.5904489      0.048582502    1.6390314    
     41500   0.92537094     1.375204       0.017697434    1.3929015    
     42000   1.1305027      1.6800526      0.041683776    1.7217364    
     42500   0.99634284     1.4806762      0.0055073144   1.4861835    
     43000   0.94957254     1.4111703      0.038458905    1.4496292    
     43500   1.0658531      1.5839761      0.012459426    1.5964356    
     44000   1.082559       1.608803       0.016255129    1.6250582    
     44500   0.92128817     1.3691366      0.040009212    1.4091458    
     45000   1.0517034      1.5629481      0.029815288    1.5927634    
     45500   0.94781751     1.4085621      0.14032058     1.5488827    
     46000   0.86349043     1.2832427      0.050493131    1.3337358    
     46500   1.0604197      1.5759015      0.021305124    1.5972066    
     47000   1.0877539      1.6165231      0.012079426    1.6286025    
     47500   1.0097502      1.500601       0.010978278    1.5115793    
     48000   0.96584161     1.435348       0.014565789    1.4499137    
     48500   1.0254011      1.52386        0.0079824449   1.5318425    
     49000   1.0666833      1.5852099      0.026341043    1.6115509    
     49500   0.97745185     1.4526021      0.031324326    1.4839264    
     50000   0.94675781     1.4069873      0.045976383    1.4529637    
     50500   0.93453014     1.3888156      0.013023463    1.4018391    
     51000   1.0068508      1.4962922      0.017567332    1.5138595    
     51500   1.1234223      1.6695303      0.031719891    1.7012502    
     52000   0.93774001     1.3935859      0.051228122    1.444814     
     52500   0.99059238     1.4721303      0.013325861    1.4854562    
     53000   1.0182132      1.5131779      0.044463425    1.5576413    
     53500   0.99317685     1.4759712      0.040521231    1.5164924    
     54000   1.0154763      1.5091105      0.023179225    1.5322898    
     54500   1.0620151      1.5782724      0.030467113    1.6087395    
     55000   0.98077266     1.4575372      0.021276319    1.4788135    
     55500   0.88764363     1.3191371      0.016180353    1.3353174    
     56000   0.88911144     1.3213184      0.044083013    1.3654014    
     56500   0.92441173     1.3737785      0.03508092     1.4088595    
     57000   1.0300365      1.5307487      0.056820266    1.587569     
     57500   1.0786465      1.6029885      0.04347131     1.6464598    
     58000   1.0400345      1.5456068      0.040300227    1.585907     
     58500   1.0803555      1.6055283      0.02051186     1.6260402    
     59000   1.0282372      1.5280747      0.016093395    1.5441681    
     59500   0.9879424      1.4681922      0.017353778    1.485546     
     60000   0.88868604     1.3206862      0.016765603    1.3374518    
     60500   0.80928686     1.2026902      0.069384354    1.2720745    
     61000   1.0405814      1.5464196      0.016213373    1.562633     
     61500   0.95058341     1.4126726      0.022306495    1.4349791    
     62000   1.0004144      1.486727       0.010615278    1.4973423    
     62500   0.95839838     1.4242865      0.015042137    1.4393286    
     63000   1.1931698      1.7731829      0.014246219    1.7874291    
     63500   1.1181645      1.6617168      0.031316752    1.6930335    
     64000   1.1080018      1.6466137      0.028738191    1.6753519    
     64500   0.95859676     1.4245813      0.060030584    1.4846119    
     65000   0.93348006     1.3872551      0.031786734    1.4190418    
     65500   1.0543215      1.5668389      0.046621997    1.6134609    
     66000   0.97158024     1.4438762      0.060398744    1.5042749    
     66500   1.0642839      1.5816441      0.038850792    1.6204949    
     67000   0.9574162      1.4228269      0.01035377     1.4331806    
     67500   1.1090084      1.6481097      0.037187302    1.685297     
     68000   0.88917751     1.3214166      0.081030736    1.4024473    
     68500   0.99799325     1.4831289      0.020895033    1.5040239    
     69000   0.95850896     1.4244508      0.0070872488   1.4315381    
     69500   1.0132046      1.5057346      0.034000816    1.5397354    
     70000   1.1408393      1.695414       0.03450788     1.7299219    
     70500   0.89672814     1.3326377      0.038042065    1.3706797    
     71000   1.0543555      1.5668895      0.030097374    1.5969869    
     71500   0.98162695     1.4588067      0.022409288    1.481216     
     72000   1.0469127      1.5558285      0.025863009    1.5816916    
     72500   1.0311682      1.5324305      0.039463173    1.5718936    
     73000   1.0241117      1.5219438      0.021175196    1.543119     
     73500   0.96072381     1.4277423      0.019898854    1.4476412    
     74000   0.9542353      1.4180997      0.046253576    1.4643533    
     74500   0.86076159     1.2791874      0.068137273    1.3473246    
     75000   0.86884081     1.291194       0.01701604     1.30821      
     75500   0.98830277     1.4687277      0.039286073    1.5080138    
     76000   1.0486868      1.5584651      0.030228835    1.5886939    
     76500   1.1579909      1.7209032      0.020410575    1.7413138    
     77000   1.1549234      1.7163445      0.013143661    1.7294882    
     77500   0.96212432     1.4298236      0.025197391    1.455021     
     78000   0.98869629     1.4693125      0.034105033    1.5034176    
     78500   1.1372715      1.6901118      0.036966816    1.7270786    
     79000   0.93983543     1.3966999      0.043100472    1.4398003    
     79500   1.1494624      1.7082289      0.071699652    1.7799285    
     80000   0.94434098     1.4033956      0.061972677    1.4653683    
     80500   0.91588549     1.3611076      0.040735329    1.4018429    
     81000   0.99984901     1.4858867      0.0081387053   1.4940254    
     81500   0.97045004     1.4421966      0.05006438     1.492261     
     82000   0.97670968     1.4514991      0.034604943    1.486104     
     82500   1.0111368      1.5026616      0.017170489    1.5198321    
     83000   0.95671203     1.4217804      0.0029671518   1.4247475    
     83500   1.0692376      1.5890059      0.049952172    1.638958     
     84000   0.96232939     1.4301284      0.044636175    1.4747646    
     84500   1.0310332      1.5322299      0.061394391    1.5936243    
     85000   1.0200212      1.5158648      0.0096177003   1.5254825    
     85500   0.96603745     1.435639       0.023653605    1.4592926    
     86000   1.0535523      1.5656958      0.058458774    1.6241546    
     86500   1.0938064      1.6255178      0.023100748    1.6486186    
     87000   1.0236256      1.5212213      0.049053963    1.5702753    
     87500   1.1500485      1.7090999      0.043881902    1.7529818    
     88000   1.066374       1.5847503      0.047883496    1.6326338    
     88500   1.0172543      1.5117529      0.013040531    1.5247934    
     89000   0.87747212     1.3040211      0.0072438899   1.311265     
     89500   1.0627121      1.5793083      0.026569287    1.6058776    
     90000   0.9608616      1.4279471      0.019296668    1.4472438    
     90500   0.88050872     1.3085338      0.019478934    1.3280127    
     91000   0.94859377     1.4097157      0.048345159    1.4580609    
     91500   0.94166814     1.3994235      0.023498984    1.4229225    
     92000   1.0107582      1.5020989      0.02150357     1.5236025    
     92500   0.95284503     1.4160336      0.0089036912   1.4249373    
     93000   0.94165202     1.3993995      0.015913866    1.4153134    
     93500   1.0289172      1.5290853      0.027856981    1.5569423    
     94000   1.0385623      1.543419       0.069803021    1.613222     
     94500   1.0101778      1.5012364      0.059895155    1.5611315    
     95000   0.92915707     1.3808306      0.033389072    1.4142197    
     95500   0.90390767     1.3433072      0.077914405    1.4212216    
     96000   1.0564948      1.5700686      0.0080847984   1.5781534    
     96500   0.86876662     1.2910837      0.030206379    1.3212901    
     97000   0.99348193     1.4764245      0.0093604588   1.485785     
     97500   0.96258254     1.4305046      0.014935088    1.4454397    
     98000   0.92638668     1.3767135      0.040145565    1.4168591    
     98500   0.97093342     1.4429149      0.038854397    1.4817693    
     99000   1.2006148      1.784247       0.054879539    1.8391265    
     99500   1.0700531      1.5902178      0.031830952    1.6220488    
    100000   0.82901986     1.2320156      0.014161196    1.2461768    
    100023   0.90101439     1.3390075      0.011676861    1.3506844    
Loop time of 0.806774 on 1 procs for 100000 steps with 108 atoms

Performance: 10709315.298 tau/day, 123950.409 timesteps/s, 13.387 Matom-step/s
122.7% CPU use with 1 MPI tasks x 1 OpenMP threads

MPI task timing breakdown:
Section |  min time  |  avg time  |  max time  |%varavg| %total
---------------------------------------------------------------
Pair    | 0.052422   | 0.052422   | 0.052422   |   0.0 |  6.50
Neigh   | 0.0097483  | 0.0097483  | 0.0097483  |   0.0 |  1.21
Comm    | 0.11676    | 0.11676    | 0.11676    |   0.0 | 14.47
Output  | 0.0051223  | 0.0051223  | 0.0051223  |   0.0 |  0.63
Modify  | 0.58984    | 0.58984    | 0.58984    |   0.0 | 73.11
Other   |            | 0.03287    |            |       |  4.07

Nlocal:            108 ave         108 max         108 min
Histogram: 1 0 0 0 0 0 0 0 0 0
Nghost:            158 ave         158 max         158 min
Histogram: 1 0 0 0 0 0 0 0 0 0
Neighs:            115 ave         115 max         115 min
Histogram: 1 0 0 0 0 0 0 0 0 0

Total # of neighbors = 115
Ave neighs/atom = 1.0648148
Neighbor list builds = 295
Dangerous builds = 0

write_data data.${outfile} nocoeff nofix
write_data data.1708717881 nocoeff nofix
System init for write_data ...
Generated 0 of 0 mixed pair_coeff terms from geometric mixing rule
Total wall time: 0:00:00
