LAMMPS (21 Nov 2023)
OMP_NUM_THREADS environment is not set. Defaulting to 1 thread. (src/comm.cpp:98)
  using 1 OpenMP thread(s) per MPI task
###variable outfile string L15.17
###variable L equal 15.17

units lj

newton off
atom_style      sphere
boundary        p p p
comm_modify     mode single vel yes


region      boxid block 0.0     $L      0.0       $L      0.0       $L
region      boxid block 0.0     4.550827520987483      0.0       $L      0.0       $L
region      boxid block 0.0     4.550827520987483      0.0       4.550827520987483      0.0       $L
region      boxid block 0.0     4.550827520987483      0.0       4.550827520987483      0.0       4.550827520987483
#create_box  1 boxid
include create_box.in
create_box 1 boxid
Created orthogonal box = (0 0 0) to (4.5508275 4.5508275 4.5508275)
  1 by 1 by 1 MPI processor grid


######
include create_np.in
create_atoms 1 random 54 3697 boxid
Created 54 atoms
  using lattice units in orthogonal box = (0 0 0) to (4.5508275 4.5508275 4.5508275)
  create_atoms CPU = 0.000 seconds
velocity    all create 1.0 87287 dist gaussian

#####
include particles.in
set type 1 diameter 1.0
Setting atom values ...
  54 settings made for diameter
set type 1 mass 26.0
Setting atom values ...
  54 settings made for mass

###
fix 1 all langevin 1.0 1.0 0.1 12345
fix 2 all nve/sphere

###
pair_style lj/cut 1.
include pots_lj_lan.in
pair_coeff 1 1 10.0 1.0 1.122462048309373
pair_modify shift yes



minimize          1.0e-4 1.0e-6 1000 1000
Generated 0 of 0 mixed pair_coeff terms from geometric mixing rule
Neighbor list info ...
  update: every = 1 steps, delay = 0 steps, check = yes
  max neighbors/atom: 2000, page size: 100000
  master list distance cutoff = 1.422462
  ghost atom cutoff = 1.422462
  binsize = 0.71123102, bins = 7 7 7
  1 neighbor lists, perpetual/occasional/extra = 1 0 0
  (1) pair lj/cut, perpetual
      attributes: half, newton off
      pair build: half/bin/newtoff
      stencil: full/bin/3d
      bin: standard
Per MPI rank memory allocation (min/avg/max) = 5.439 | 5.439 | 5.439 Mbytes
   Step          Temp          E_pair         E_mol          TotEng         Press     
         0   49.656342      98192455       0              98192528       2.2506132e+08
        40   49.656342      2.635798e-08   0              73.105171      27.924278    
Loop time of 0.00138416 on 1 procs for 40 steps with 54 atoms

529.1% CPU use with 1 MPI tasks x 1 OpenMP threads

Minimization stats:
  Stopping criterion = quadratic factors are zero
  Energy initial, next-to-last, final = 
       98192455.239658 2.635797983167e-08 2.635797983167e-08
  Force two-norm initial, final = 2.2514346e+11 0.057064844
  Force max component initial, final = 1.1336786e+11 0.039219717
  Final line search alpha, max atom move = 0.015625 0.00061280807
  Iterations, force evaluations = 40 161

MPI task timing breakdown:
Section |  min time  |  avg time  |  max time  |%varavg| %total
---------------------------------------------------------------
Pair    | 0.00035764 | 0.00035764 | 0.00035764 |   0.0 | 25.84
Neigh   | 0.00048971 | 0.00048971 | 0.00048971 |   0.0 | 35.38
Comm    | 0.00035062 | 0.00035062 | 0.00035062 |   0.0 | 25.33
Output  | 0          | 0          | 0          |   0.0 |  0.00
Modify  | 0          | 0          | 0          |   0.0 |  0.00
Other   |            | 0.0001862  |            |       | 13.45

Nlocal:             54 ave          54 max          54 min
Histogram: 1 0 0 0 0 0 0 0 0 0
Nghost:            157 ave         157 max         157 min
Histogram: 1 0 0 0 0 0 0 0 0 0
Neighs:            252 ave         252 max         252 min
Histogram: 1 0 0 0 0 0 0 0 0 0

Total # of neighbors = 252
Ave neighs/atom = 4.6666667
Neighbor list builds = 14
Dangerous builds = 0

thermo_style custom step temp ke pe etotal
thermo 500
timestep 0.001
#dump    id all custom 5000 out_lan_${outfile}.lammpstrj id type radius mass xu yu zu vx vy vz fx fy fz
dump    id all custom 5000 out_lan_${outfile}.lammpstrj id type radius mass x y z
dump    id all custom 5000 out_lan_1708801343.lammpstrj id type radius mass x y z
run 100000
Generated 0 of 0 mixed pair_coeff terms from geometric mixing rule
Per MPI rank memory allocation (min/avg/max) = 4.314 | 4.314 | 4.314 Mbytes
   Step          Temp          KinEng         PotEng         TotEng    
        40   49.656342      73.105171      2.635798e-08   73.105171    
       500   0.99815605     1.4695075      0.8145581      2.2840656    
      1000   1.0463614      1.5404765      0.38329489     1.9237714    
      1500   1.0042483      1.4784766      0.43282203     1.9112986    
      2000   1.1381726      1.6756431      0.37086432     2.0465074    
      2500   1.0581788      1.5578744      0.45702079     2.0148951    
      3000   0.94190677     1.3866961      0.36822584     1.7549219    
      3500   1.232746       1.8148761      0.27890303     2.0937792    
      4000   1.000634       1.4731557      0.38485042     1.8580061    
      4500   1.0434122      1.5361346      0.35112546     1.8872601    
      5000   1.0815714      1.5923135      0.35671385     1.9490273    
      5500   0.99153737     1.4597634      0.30029154     1.7600549    
      6000   0.94642514     1.3933481      0.29485141     1.6881995    
      6500   1.0115726      1.4892596      0.30336568     1.7926253    
      7000   1.1385048      1.676132       0.28071975     1.9568517    
      7500   0.96212444     1.416461       0.31314246     1.7296034    
      8000   1.1110053      1.6356467      0.34349369     1.9791404    
      8500   0.90091558     1.3263479      0.25363607     1.579984     
      9000   1.0398706      1.5309206      0.35553852     1.8864591    
      9500   0.91412178     1.3457904      0.50630334     1.8520937    
     10000   1.128401       1.661257       0.29506625     1.9563233    
     10500   1.2866085      1.8941736      0.35281493     2.2469885    
     11000   1.0482894      1.5433149      0.29304736     1.8363623    
     11500   0.82547035     1.2152758      0.2429627      1.4582385    
     12000   1.0434509      1.5361916      0.39102694     1.9272185    
     12500   1.0110023      1.48842        0.30426016     1.7926802    
     13000   0.89908588     1.3236542      0.27016465     1.5938189    
     13500   0.94512516     1.3914343      0.2819718      1.6734061    
     14000   0.84559282     1.2449005      0.47525496     1.7201555    
     14500   1.0432582      1.5359079      0.34253758     1.8784454    
     15000   1.1265976      1.6586021      0.28482832     1.9434304    
     15500   0.97515949     1.4356515      0.31946422     1.7551157    
     16000   1.0608675      1.5618327      0.38921744     1.9510502    
     16500   0.81748614     1.2035213      0.2570645      1.4605858    
     17000   1.1812902      1.7391217      0.35650835     2.0956301    
     17500   1.1898165      1.7516743      0.22194323     1.9736176    
     18000   0.85753144     1.2624768      0.37650176     1.6389786    
     18500   0.99842845     1.4699086      0.22267999     1.6925885    
     19000   0.85525479     1.2591251      0.24577508     1.5049002    
     19500   1.0174119      1.4978564      0.28118813     1.7790445    
     20000   1.0204617      1.5023464      0.24333742     1.7456838    
     20500   0.94129001     1.3857881      0.4378615      1.8236496    
     21000   1.045431       1.5391067      0.17848513     1.7175918    
     21500   0.91071773     1.3407789      0.24822341     1.5890023    
     22000   1.0757668      1.5837679      0.4295885      2.0133564    
     22500   1.0912889      1.6066198      0.28238044     1.8890002    
     23000   0.82410534     1.2132662      0.36106561     1.5743318    
     23500   0.88632892     1.3048731      0.24842576     1.5532989    
     24000   1.0398222      1.5308494      0.3694875      1.9003369    
     24500   1.0579601      1.5575523      0.18555597     1.7431083    
     25000   0.8439722      1.2425146      0.26610155     1.5086162    
     25500   0.85631037     1.2606792      0.2064773      1.4671565    
     26000   1.0272609      1.5123564      0.33758788     1.8499443    
     26500   1.0011415      1.4739028      0.206384       1.6802868    
     27000   1.2064929      1.7762256      0.37301103     2.1492367    
     27500   0.95992839     1.4132279      0.4121443      1.8253722    
     28000   1.1576106      1.7042601      0.26982126     1.9740814    
     28500   1.1496882      1.6925965      0.20328387     1.8958804    
     29000   1.0806967      1.5910258      0.25131819     1.8423439    
     29500   0.98763951     1.4540248      0.29366577     1.7476906    
     30000   1.0744456      1.5818226      0.25553272     1.8373553    
     30500   1.1605031      1.7085184      0.22560526     1.9341237    
     31000   1.0783911      1.5876314      0.31559944     1.9032308    
     31500   0.99754653     1.4686102      0.14863332     1.6172435    
     32000   0.92487432     1.3616205      0.31534661     1.6769671    
     32500   0.99173238     1.4600504      0.18442728     1.6444777    
     33000   1.1034556      1.6245318      0.18566068     1.8101925    
     33500   0.90050117     1.3257378      0.30978955     1.6355274    
     34000   1.0682019      1.5726306      0.18266419     1.7552948    
     34500   1.1289061      1.6620006      0.22640827     1.8884089    
     35000   0.95526098     1.4063564      0.18962884     1.5959853    
     35500   0.92619979     1.3635719      0.22214354     1.5857155    
     36000   1.0807426      1.5910932      0.21841274     1.8095059    
     36500   1.0439353      1.5369047      0.23337148     1.7702762    
     37000   1.1473048      1.6890877      0.1322827      1.8213704    
     37500   0.85493692     1.2586571      0.27419084     1.532848     
     38000   0.91610608     1.3487117      0.37538472     1.7240965    
     38500   1.0090848      1.4855971      0.24953076     1.7351279    
     39000   1.1376127      1.6748187      0.32174984     1.9965686    
     39500   0.8915912      1.3126204      0.29032861     1.602949     
     40000   1.0083357      1.4844942      0.2759561      1.7604503    
     40500   0.9481423      1.3958762      0.32666274     1.7225389    
     41000   1.2107044      1.7824259      0.22902555     2.0114514    
     41500   1.0352095      1.5240585      0.20518024     1.7292387    
     42000   1.0489395      1.5442721      0.21061237     1.7548845    
     42500   1.0227383      1.5056981      0.22959674     1.7352948    
     43000   1.0707811      1.5764277      0.37795569     1.9543834    
     43500   1.0324664      1.52002        0.26502578     1.7850458    
     44000   1.3328219      1.96221        0.23414077     2.1963508    
     44500   0.88082804     1.2967746      0.21901697     1.5157916    
     45000   0.87620782     1.2899726      0.38104879     1.6710214    
     45500   0.96687431     1.4234538      0.2461618      1.6696156    
     46000   0.91363284     1.3450706      0.32758799     1.6726586    
     46500   1.0650341      1.5679669      0.24345451     1.8114214    
     47000   1.0379932      1.5281567      0.28364347     1.8118001    
     47500   1.1059688      1.6282319      0.21061062     1.8388425    
     48000   1.0888579      1.6030408      0.37494201     1.9779828    
     48500   1.10856        1.6320467      0.27320917     1.9052558    
     49000   1.1494145      1.6921936      0.29125846     1.983452     
     49500   1.0052337      1.4799273      0.30018273     1.7801101    
     50000   0.94563883     1.3921905      0.24147506     1.6336656    
     50500   1.0084835      1.4847118      0.15611756     1.6408294    
     51000   0.93579898     1.3777041      0.30665093     1.684355     
     51500   0.92445936     1.3610096      0.27889262     1.6399022    
     52000   1.0133058      1.4918113      0.27172859     1.7635398    
     52500   1.0259531      1.5104309      0.25594277     1.7663737    
     53000   0.96400825     1.4192344      0.19702824     1.6162626    
     53500   0.81186597     1.1952471      0.18936848     1.3846156    
     54000   0.98328162     1.4476091      0.30990338     1.7575124    
     54500   1.2412457      1.8273895      0.25326197     2.0806515    
     55000   0.82724369     1.2178865      0.29453982     1.5124264    
     55500   1.0861921      1.5991161      0.17488392     1.774        
     56000   0.94731499     1.3946582      0.29876147     1.6934196    
     56500   0.94886394     1.3969386      0.31012962     1.7070682    
     57000   0.94488376     1.3910789      0.26105345     1.6521323    
     57500   0.94487109     1.3910602      0.23216486     1.6232251    
     58000   1.1358993      1.6722962      0.24954323     1.9218394    
     58500   1.2495194      1.8395702      0.20541443     2.0449847    
     59000   1.1519786      1.6959685      0.32404507     2.0200136    
     59500   1.1717182      1.7250295      0.21062586     1.9356554    
     60000   0.995775       1.4660021      0.35841573     1.8244178    
     60500   0.91759684     1.3509065      0.19310111     1.5440076    
     61000   1.1528186      1.6972052      0.21509636     1.9123015    
     61500   0.85601627     1.2602462      0.31132314     1.5715693    
     62000   1.044124       1.5371826      0.23503755     1.7722201    
     62500   1.090537       1.6055128      0.3421584      1.9476712    
     63000   1.0170883      1.4973801      0.29424055     1.7916206    
     63500   0.98162455     1.4451695      0.22991792     1.6750874    
     64000   0.95106638     1.4001811      0.31765183     1.7178329    
     64500   0.9499031      1.3984685      0.2300006      1.6284691    
     65000   1.0881359      1.6019779      0.31094718     1.9129251    
     65500   0.99710406     1.4679588      0.33034666     1.7983054    
     66000   1.0640067      1.5664544      0.41611556     1.9825699    
     66500   0.98535916     1.4506677      0.39245615     1.8431238    
     67000   1.1404536      1.6790011      0.2438688      1.9228699    
     67500   0.85933755     1.2651358      0.31433224     1.5794681    
     68000   1.0449596      1.5384128      0.32789274     1.8663055    
     68500   1.0541292      1.5519124      0.20487672     1.7567891    
     69000   0.92009459     1.3545837      0.50875255     1.8633362    
     69500   0.93254724     1.3729168      0.32259943     1.6955162    
     70000   1.0661182      1.569563       0.20662455     1.7761875    
     70500   1.2087741      1.779584       0.30148315     2.0810672    
     71000   0.82767058     1.218515       0.25430257     1.4728176    
     71500   1.0911554      1.6064233      0.33126226     1.9376855    
     72000   0.91320532     1.3444412      0.23181484     1.576256     
     72500   1.0624516      1.5641649      0.28961525     1.8537801    
     73000   0.91125613     1.3415715      0.26426956     1.6058411    
     73500   1.0738584      1.5809582      0.18285348     1.7638116    
     74000   1.0513926      1.5478835      0.29231478     1.8401983    
     74500   1.1558739      1.7017032      0.25897698     1.9606802    
     75000   0.94753574     1.3949832      0.3040099      1.6989931    
     75500   1.1863401      1.7465562      0.36311518     2.1096714    
     76000   1.2989086      1.9122821      0.32427342     2.2365555    
     76500   0.90385411     1.3306741      0.3586583      1.6893324    
     77000   1.0637862      1.5661297      0.18480927     1.750939     
     77500   1.1893723      1.7510203      0.31629943     2.0673198    
     78000   1.0254199      1.509646       0.29936143     1.8090074    
     78500   0.9090403      1.3383093      0.23462914     1.5729385    
     79000   0.98339803     1.4477804      0.4153054      1.8630858    
     79500   0.92828281     1.3666386      0.35662152     1.7232601    
     80000   0.96910947     1.4267445      0.44137227     1.8681168    
     80500   1.0261908      1.5107808      0.350651       1.8614319    
     81000   0.97689823     1.4382113      0.22380352     1.6620148    
     81500   1.1966267      1.7617004      0.3485772      2.1102776    
     82000   0.85547513     1.2594495      0.34442293     1.6038724    
     82500   1.1178833      1.6457726      0.14644702     1.7922196    
     83000   0.90992429     1.3396108      0.24489715     1.5845079    
     83500   1.0758353      1.5838687      0.22253222     1.8064009    
     84000   1.0456516      1.5394315      0.24790766     1.7873392    
     84500   0.97259748     1.4318796      0.15790137     1.589781     
     85000   0.89253281     1.3140066      0.20356677     1.5175734    
     85500   1.119431       1.6480512      0.21131048     1.8593617    
     86000   0.93720698     1.3797769      0.28126505     1.661042     
     86500   0.86327729     1.270936       0.34445023     1.6153862    
     87000   1.0067935      1.4822238      0.14577739     1.6280012    
     87500   1.2361008      1.8198151      0.23594074     2.0557559    
     88000   1.2457635      1.8340407      0.26542219     2.0994629    
     88500   1.116893       1.6443147      0.26551836     1.9098331    
     89000   0.94344834     1.3889656      0.38114225     1.7701079    
     89500   1.2312114      1.8126168      0.42592869     2.2385455    
     90000   0.92352691     1.3596368      0.33028485     1.6899217    
     90500   1.0138363      1.4925923      0.11936191     1.6119542    
     91000   0.92785838     1.3660137      0.18076188     1.5467756    
     91500   0.91256013     1.3434913      0.32291629     1.6664076    
     92000   1.1401234      1.678515       0.27148603     1.950001     
     92500   0.97279779     1.4321745      0.21565595     1.6478305    
     93000   0.8743135      1.2871838      0.2367911      1.5239749    
     93500   1.0595812      1.559939       0.25414363     1.8140827    
     94000   1.0059874      1.481037       0.30608276     1.7871197    
     94500   0.99198182     1.4604177      0.32319937     1.783617     
     95000   1.03111        1.5180231      0.32475672     1.8427798    
     95500   1.096278       1.6139648      0.22240524     1.8363701    
     96000   1.1396996      1.677891       0.21209518     1.8899862    
     96500   0.98601993     1.4516405      0.27660893     1.7282494    
     97000   1.0359428      1.5251381      0.23264771     1.7577858    
     97500   1.1899087      1.75181        0.35474197     2.106552     
     98000   0.9491959      1.3974273      0.34637764     1.7438049    
     98500   1.0752934      1.5830708      0.28809913     1.87117      
     99000   1.0393806      1.5301993      0.14263659     1.6728358    
     99500   1.0075508      1.4833386      0.22360266     1.7069413    
    100000   1.1101186      1.6343412      0.17050626     1.8048475    
    100040   1.0827574      1.5940595      0.13999279     1.7340523    
Loop time of 0.573808 on 1 procs for 100000 steps with 54 atoms

Performance: 15057294.102 tau/day, 174274.237 timesteps/s, 9.411 Matom-step/s
144.2% CPU use with 1 MPI tasks x 1 OpenMP threads

MPI task timing breakdown:
Section |  min time  |  avg time  |  max time  |%varavg| %total
---------------------------------------------------------------
Pair    | 0.090255   | 0.090255   | 0.090255   |   0.0 | 15.73
Neigh   | 0.0082898  | 0.0082898  | 0.0082898  |   0.0 |  1.44
Comm    | 0.13353    | 0.13353    | 0.13353    |   0.0 | 23.27
Output  | 0.0031053  | 0.0031053  | 0.0031053  |   0.0 |  0.54
Modify  | 0.31594    | 0.31594    | 0.31594    |   0.0 | 55.06
Other   |            | 0.02269    |            |       |  3.95

Nlocal:             54 ave          54 max          54 min
Histogram: 1 0 0 0 0 0 0 0 0 0
Nghost:            175 ave         175 max         175 min
Histogram: 1 0 0 0 0 0 0 0 0 0
Neighs:            244 ave         244 max         244 min
Histogram: 1 0 0 0 0 0 0 0 0 0

Total # of neighbors = 244
Ave neighs/atom = 4.5185185
Neighbor list builds = 257
Dangerous builds = 0

write_data data.${outfile} nocoeff nofix
write_data data.1708801343 nocoeff nofix
System init for write_data ...
Generated 0 of 0 mixed pair_coeff terms from geometric mixing rule
Total wall time: 0:00:00
