LAMMPS (21 Nov 2023)
OMP_NUM_THREADS environment is not set. Defaulting to 1 thread. (src/comm.cpp:98)
  using 1 OpenMP thread(s) per MPI task
###variable outfile string L15.17
###variable L equal 15.17

units lj

newton off
atom_style      sphere
boundary        p p p
comm_modify     mode single vel yes


region      boxid block 0.0     $L      0.0       $L      0.0       $L
region      boxid block 0.0     4.5508      0.0       $L      0.0       $L
region      boxid block 0.0     4.5508      0.0       4.5508      0.0       $L
region      boxid block 0.0     4.5508      0.0       4.5508      0.0       4.5508
#create_box  1 boxid
include create_box.in
create_box 1 boxid
Created orthogonal box = (0 0 0) to (4.5508 4.5508 4.5508)
  1 by 1 by 1 MPI processor grid


######
include create_np.in
create_atoms 1 random 54 2702 boxid
Created 54 atoms
  using lattice units in orthogonal box = (0 0 0) to (4.5508 4.5508 4.5508)
  create_atoms CPU = 0.000 seconds
velocity    all create 1.0 87287 dist gaussian

#####
include particles.in
set type 1 diameter 1.0
Setting atom values ...
  54 settings made for diameter
set type 1 mass 26.0
Setting atom values ...
  54 settings made for mass

###
fix 1 all langevin 1.0 1.0 0.1 12345
fix 2 all nve/sphere

###
pair_style lj/cut 1.
include pots_lj_lan.in
pair_coeff 1 1 10.0 1.0 1.122462048309373
pair_modify shift yes



minimize          1.0e-4 1.0e-6 1000 1000
Generated 0 of 0 mixed pair_coeff terms from geometric mixing rule
Neighbor list info ...
  update: every = 1 steps, delay = 0 steps, check = yes
  max neighbors/atom: 2000, page size: 100000
  master list distance cutoff = 1.422462
  ghost atom cutoff = 1.422462
  binsize = 0.71123102, bins = 7 7 7
  1 neighbor lists, perpetual/occasional/extra = 1 0 0
  (1) pair lj/cut, perpetual
      attributes: half, newton off
      pair build: half/bin/newtoff
      stencil: full/bin/3d
      bin: standard
Per MPI rank memory allocation (min/avg/max) = 5.44 | 5.44 | 5.44 Mbytes
   Step          Temp          E_pair         E_mol          TotEng         Press     
         0   49.656342      3.1510337e+09  0              3.1510338e+09  7.2218605e+09
        41   49.656342      0              0              73.105171      27.924625    
Loop time of 0.00118554 on 1 procs for 41 steps with 54 atoms

532.2% CPU use with 1 MPI tasks x 1 OpenMP threads

Minimization stats:
  Stopping criterion = force tolerance
  Energy initial, next-to-last, final = 
      3151033747.58246 6.33924405972434e-09                  0
  Force two-norm initial, final = 1.2152773e+13 0
  Force max component initial, final = 5.2893125e+12 0
  Final line search alpha, max atom move = 0.25 0
  Iterations, force evaluations = 41 144

MPI task timing breakdown:
Section |  min time  |  avg time  |  max time  |%varavg| %total
---------------------------------------------------------------
Pair    | 0.00030157 | 0.00030157 | 0.00030157 |   0.0 | 25.44
Neigh   | 0.00040693 | 0.00040693 | 0.00040693 |   0.0 | 34.32
Comm    | 0.00032546 | 0.00032546 | 0.00032546 |   0.0 | 27.45
Output  | 0          | 0          | 0          |   0.0 |  0.00
Modify  | 0          | 0          | 0          |   0.0 |  0.00
Other   |            | 0.0001516  |            |       | 12.79

Nlocal:             54 ave          54 max          54 min
Histogram: 1 0 0 0 0 0 0 0 0 0
Nghost:            188 ave         188 max         188 min
Histogram: 1 0 0 0 0 0 0 0 0 0
Neighs:            255 ave         255 max         255 min
Histogram: 1 0 0 0 0 0 0 0 0 0

Total # of neighbors = 255
Ave neighs/atom = 4.7222222
Neighbor list builds = 13
Dangerous builds = 0

thermo_style custom step temp ke pe etotal
thermo 500
timestep 0.001
#dump    id all custom 5000 out_lan_${outfile}.lammpstrj id type radius mass xu yu zu vx vy vz fx fy fz
dump    id all custom 5000 out_lan_${outfile}.lammpstrj id type radius mass x y z
dump    id all custom 5000 out_lan_1708716397.lammpstrj id type radius mass x y z
run 100000
Generated 0 of 0 mixed pair_coeff terms from geometric mixing rule
Per MPI rank memory allocation (min/avg/max) = 4.315 | 4.315 | 4.315 Mbytes
   Step          Temp          KinEng         PotEng         TotEng    
        41   49.656342      73.105171      0              73.105171    
       500   0.98520927     1.450447       0.78517664     2.2356236    
      1000   1.0686353      1.5732687      0.45363872     2.0269074    
      1500   1.067413       1.5714691      0.45459472     2.0260638    
      2000   1.0946411      1.611555       0.50695841     2.1185134    
      2500   1.0942636      1.6109992      0.34209041     1.9530897    
      3000   0.9336998      1.3746136      0.34857414     1.7231877    
      3500   1.1118983      1.6369614      0.33512628     1.9720877    
      4000   1.0444927      1.5377253      0.22922128     1.7669466    
      4500   0.97659794     1.4377692      0.385689       1.8234582    
      5000   1.0432437      1.5358865      0.38405283     1.9199394    
      5500   0.98459086     1.4495365      0.25967119     1.7092077    
      6000   1.0736871      1.580706       0.27727027     1.8579763    
      6500   1.0933743      1.60969        0.35266828     1.9623583    
      7000   1.2537364      1.8457785      0.19629615     2.0420747    
      7500   0.95214837     1.401774       0.36760298     1.769377     
      8000   1.0759022      1.5839671      0.2602323      1.8441994    
      8500   0.83780724     1.2334384      0.2449325      1.4783709    
      9000   1.1050699      1.6269085      0.36828258     1.9951911    
      9500   0.89782284     1.3217947      0.34522833     1.6670231    
     10000   1.1357595      1.6720904      0.24668044     1.9187708    
     10500   1.2453796      1.8334756      0.32448628     2.1579619    
     11000   0.95034633     1.399121       0.40643086     1.8055518    
     11500   0.76867243     1.1316566      0.18435919     1.3160158    
     12000   1.0922648      1.6080565      0.16761177     1.7756683    
     12500   1.0712517      1.5771206      0.40870697     1.9858276    
     13000   0.98039619     1.4433611      0.40710905     1.8504701    
     13500   0.90337719     1.329972       0.37445614     1.7044281    
     14000   0.80925154     1.1913981      0.41971384     1.6111119    
     14500   1.1676474      1.7190364      0.3692829      2.0883193    
     15000   1.216037       1.7902767      0.19019986     1.9804766    
     15500   1.0502189      1.5461556      0.29209026     1.8382459    
     16000   1.0500733      1.5459412      0.3934421      1.9393833    
     16500   0.68990062     1.015687       0.24811758     1.2638046    
     17000   1.0440481      1.5370708      0.36657522     1.903646     
     17500   0.95747929     1.4096223      0.33330798     1.7429303    
     18000   0.84629817     1.245939       0.38169883     1.6276378    
     18500   1.004074       1.4782201      0.22252435     1.7007444    
     19000   0.89512105     1.3178171      0.26404586     1.581863     
     19500   1.0403389      1.5316101      0.27478976     1.8063998    
     20000   1.0783236      1.587532       0.24270766     1.8302396    
     20500   1.0637839      1.5661262      0.31575416     1.8818804    
     21000   0.97112349     1.4297096      0.37026893     1.7999785    
     21500   1.0011617      1.4739326      0.25839002     1.7323226    
     22000   0.94333961     1.3888055      0.41112971     1.7999352    
     22500   0.99710216     1.467956       0.27861422     1.7465702    
     23000   0.90432546     1.331368       0.33746618     1.6688342    
     23500   0.89189216     1.3130635      0.34346786     1.6565313    
     24000   1.0092213      1.485798       0.40905366     1.8948516    
     24500   1.0041294      1.4783017      0.29229224     1.7705939    
     25000   0.85584218     1.2599899      0.31721666     1.5772065    
     25500   0.84366157     1.2420573      0.2744625      1.5165198    
     26000   1.0180175      1.498748       0.28096366     1.7797116    
     26500   1.0669665      1.5708118      0.34689617     1.917708     
     27000   1.0772592      1.585965       0.3833391      1.9693041    
     27500   0.93507865     1.3766436      0.25321712     1.6298607    
     28000   1.04534        1.5389728      0.32330062     1.8622734    
     28500   1.1999964      1.7666613      0.26515545     2.0318168    
     29000   1.0251197      1.5092041      0.33494862     1.8441527    
     29500   0.91964333     1.3539193      0.27790052     1.6318199    
     30000   1.0252092      1.5093358      0.32810334     1.8374391    
     30500   1.1149321      1.6414278      0.2045894      1.8460172    
     31000   1.097578       1.6158787      0.32320996     1.9390886    
     31500   0.95749834     1.4096503      0.18995768     1.599608     
     32000   0.9842123      1.4489792      0.18003039     1.6290096    
     32500   0.94356319     1.3891347      0.26720842     1.6563431    
     33000   1.0010116      1.4737116      0.27243267     1.7461443    
     33500   0.97212415     1.4311828      0.15893699     1.5901198    
     34000   1.0521357      1.5489776      0.27109835     1.820076     
     34500   0.89407624     1.3162789      0.46935582     1.7856347    
     35000   1.1619615      1.7106655      0.15054561     1.8612111    
     35500   0.98011643     1.4429492      0.26411257     1.7070618    
     36000   1.0281548      1.5136724      0.21184318     1.7255156    
     36500   1.0628171      1.564703       0.26389957     1.8286026    
     37000   1.0317169      1.5189165      0.21509214     1.7340086    
     37500   0.86193424     1.2689587      0.35316695     1.6221257    
     38000   0.93913195     1.3826109      0.36342527     1.7460362    
     38500   1.0237996      1.5072606      0.38241515     1.8896757    
     39000   1.2163417      1.7907253      0.093854305    1.8845796    
     39500   0.94807934     1.3957835      0.30841161     1.7041951    
     40000   0.94470232     1.3908118      0.22467674     1.6154885    
     40500   0.93792084     1.3808279      0.27488802     1.6557159    
     41000   1.072486       1.5789378      0.44575676     2.0246946    
     41500   1.0136466      1.4923131      0.28692859     1.7792417    
     42000   1.0612271      1.5623621      0.29795491     1.860317     
     42500   0.96282968     1.4174992      0.31947894     1.7369782    
     43000   1.0451937      1.5387574      0.24052949     1.7792868    
     43500   1.0208375      1.5028996      0.2786679      1.7815675    
     44000   1.2830976      1.8890048      0.13475646     2.0237613    
     44500   0.78346543     1.1534352      0.22625044     1.3796857    
     45000   0.8994206      1.324147       0.31984666     1.6439937    
     45500   0.94208165     1.3869535      0.20399997     1.5909535    
     46000   0.95721733     1.4092366      0.19251762     1.6017542    
     46500   1.2461935      1.8346738      0.1688052      2.003479     
     47000   1.0668318      1.5706135      0.23771407     1.8083276    
     47500   1.1449471      1.6856165      0.19642248     1.882039     
     48000   1.131313       1.6655442      0.22112189     1.8866661    
     48500   1.0957866      1.6132414      0.31779642     1.9310379    
     49000   1.0774023      1.5861756      0.31133934     1.8975149    
     49500   0.92954605     1.3684984      0.31546082     1.6839592    
     50000   0.89096904     1.3117044      0.21300139     1.5247058    
     50500   0.98820462     1.4548568      0.31756915     1.772426     
     51000   0.93697403     1.379434       0.2914027      1.6708367    
     51500   1.0107281      1.4880164      0.21201549     1.7000319    
     52000   1.1553095      1.7008724      0.14347739     1.8443498    
     52500   1.0807541      1.5911101      0.2716845      1.8627946    
     53000   1.0175269      1.4980258      0.19841142     1.6964372    
     53500   0.76434631     1.1252876      0.21445144     1.3397391    
     54000   1.0248007      1.5087344      0.19178013     1.7005145    
     54500   1.2709744      1.8711567      0.26440794     2.1355647    
     55000   0.87323282     1.2855928      0.34104158     1.6266343    
     55500   1.1310248      1.6651198      0.18780237     1.8529221    
     56000   0.914421       1.3462309      0.092021132    1.438252     
     56500   1.077291       1.5860118      0.18780174     1.7738135    
     57000   0.90014509     1.3252136      0.32680105     1.6520147    
     57500   0.91231142     1.3431251      0.26292447     1.6060496    
     58000   1.1248794      1.6560724      0.22215086     1.8782233    
     58500   1.2003341      1.7671585      0.20397552     1.9711341    
     59000   1.2145176      1.7880398      0.14282429     1.9308641    
     59500   1.1508527      1.6943109      0.26086967     1.9551805    
     60000   1.0457058      1.5395113      0.311221       1.8507323    
     60500   0.84140631     1.2387371      0.15032992     1.389067     
     61000   1.0832238      1.5947462      0.18561218     1.7803584    
     61500   0.80272533     1.1817901      0.29727275     1.4790628    
     62000   1.0584958      1.558341       0.33323319     1.8915742    
     62500   1.1682004      1.7198506      0.20315171     1.9230023    
     63000   0.99532377     1.4653378      0.25400277     1.7193405    
     63500   0.92437497     1.3608854      0.22049285     1.5813782    
     64000   1.0034215      1.4772594      0.27321117     1.7504706    
     64500   1.0149422      1.4942204      0.26188778     1.7561082    
     65000   1.0516088      1.5482018      0.14094417     1.6891459    
     65500   0.96666573     1.4231468      0.21026709     1.6334139    
     66000   1.161014       1.7092706      0.18595525     1.8952258    
     66500   0.85181211     1.2540567      0.3236175      1.5776742    
     67000   0.90337236     1.3299649      0.26571372     1.5956786    
     67500   0.92272367     1.3584543      0.27001795     1.6284722    
     68000   1.1275482      1.6600016      0.27331643     1.933318     
     68500   1.1198396      1.6486528      0.26934984     1.9180026    
     69000   1.0117723      1.4895537      0.31413982     1.8036935    
     69500   0.93565844     1.3774972      0.1880266      1.5655237    
     70000   1.08728        1.6007178      0.31744563     1.9181634    
     70500   1.1927743      1.7560289      0.50058694     2.2566158    
     71000   0.83203577     1.2249415      0.41578148     1.640723     
     71500   1.0647882      1.5676048      0.32114899     1.8887538    
     72000   0.89040019     1.3108669      0.22016771     1.5310347    
     72500   1.1596715      1.7072942      0.25158336     1.9588775    
     73000   0.88468031     1.302446       0.26115172     1.5635977    
     73500   1.2480017      1.8373358      0.38238089     2.2197167    
     74000   1.0765725      1.5849539      0.27633637     1.8612903    
     74500   1.2404601      1.8262329      0.31910981     2.1453428    
     75000   0.98564211     1.4510842      0.27426187     1.7253461    
     75500   1.1595921      1.7071772      0.30213196     2.0093092    
     76000   1.3159069      1.9373074      0.2801663      2.2174737    
     76500   0.84547922     1.2447333      0.35330931     1.5980426    
     77000   1.0325031      1.520074       0.2397302      1.7598042    
     77500   1.1019786      1.6223574      0.3436362      1.9659936    
     78000   1.0412811      1.5329972      0.24894559     1.7819428    
     78500   0.8623873      1.2696257      0.22445976     1.4940855    
     79000   1.0128667      1.4911649      0.2949799      1.7861448    
     79500   0.99539574     1.4654437      0.29285372     1.7582975    
     80000   1.0044364      1.4787536      0.362265       1.8410186    
     80500   1.0799789      1.589969       0.23149338     1.8214624    
     81000   0.95970203     1.4128947      0.18483299     1.5977276    
     81500   1.2019479      1.7695344      0.34791065     2.117445     
     82000   0.85052208     1.2521575      0.30157523     1.5537327    
     82500   1.0931986      1.6094313      0.16895957     1.7783909    
     83000   0.90685707     1.3350951      0.19676333     1.5318585    
     83500   1.0525524      1.549591       0.19126683     1.7408578    
     84000   1.0754033      1.5832326      0.15470596     1.7379386    
     84500   1.0890389      1.6033073      0.16130945     1.7646168    
     85000   0.89764207     1.3215286      0.19701994     1.5185485    
     85500   1.0017417      1.4747864      0.19071625     1.6655027    
     86000   1.0040589      1.4781978      0.18518614     1.6633839    
     86500   0.899754       1.3246378      0.21204204     1.5366799    
     87000   0.96645014     1.4228294      0.39605242     1.8188818    
     87500   1.1429568      1.6826864      0.30655008     1.9892365    
     88000   1.1521972      1.6962904      0.28707915     1.9833695    
     88500   1.0554717      1.553889       0.39020802     1.944097     
     89000   0.95474002     1.4055895      0.30316365     1.7087531    
     89500   1.1177144      1.645524       0.20774824     1.8532722    
     90000   0.8806893      1.2965704      0.36354942     1.6601198    
     90500   0.97933219     1.4417946      0.26812352     1.7099181    
     91000   0.96842993     1.4257441      0.34196794     1.767712     
     91500   1.0477828      1.5425691      0.17845053     1.7210196    
     92000   1.0194136      1.5008033      0.3178928      1.8186961    
     92500   1.0490375      1.5444163      0.12379781     1.6682141    
     93000   0.92344718     1.3595195      0.29803818     1.6575576    
     93500   1.1095544      1.6335106      0.21145913     1.8449697    
     94000   1.0945002      1.6113475      0.22792999     1.8392774    
     94500   1.0002828      1.4726386      0.20728962     1.6799282    
     95000   1.0541255      1.5519069      0.19589342     1.7478004    
     95500   1.1398038      1.6780445      0.15822545     1.83627      
     96000   1.1922957      1.7553242      0.20037908     1.9557033    
     96500   0.98858881     1.4554224      0.3557611      1.8111835    
     97000   0.98710173     1.4532331      0.3971017      1.8503348    
     97500   1.1930908      1.7564948      0.37457008     2.1310649    
     98000   0.96964895     1.4275387      0.37300536     1.8005441    
     98500   1.0581337      1.5578079      0.29442606     1.852234     
     99000   0.957696       1.4099413      0.26770944     1.6776508    
     99500   0.87972302     1.2951478      0.27572155     1.5708693    
    100000   1.065902       1.5692447      0.24969762     1.8189423    
    100041   1.0443836      1.5375647      0.25459949     1.7921642    
Loop time of 0.538651 on 1 procs for 100000 steps with 54 atoms

Performance: 16040076.249 tau/day, 185649.031 timesteps/s, 10.025 Matom-step/s
150.1% CPU use with 1 MPI tasks x 1 OpenMP threads

MPI task timing breakdown:
Section |  min time  |  avg time  |  max time  |%varavg| %total
---------------------------------------------------------------
Pair    | 0.088537   | 0.088537   | 0.088537   |   0.0 | 16.44
Neigh   | 0.0076779  | 0.0076779  | 0.0076779  |   0.0 |  1.43
Comm    | 0.13103    | 0.13103    | 0.13103    |   0.0 | 24.32
Output  | 0.0032894  | 0.0032894  | 0.0032894  |   0.0 |  0.61
Modify  | 0.28625    | 0.28625    | 0.28625    |   0.0 | 53.14
Other   |            | 0.02187    |            |       |  4.06

Nlocal:             54 ave          54 max          54 min
Histogram: 1 0 0 0 0 0 0 0 0 0
Nghost:            170 ave         170 max         170 min
Histogram: 1 0 0 0 0 0 0 0 0 0
Neighs:            261 ave         261 max         261 min
Histogram: 1 0 0 0 0 0 0 0 0 0

Total # of neighbors = 261
Ave neighs/atom = 4.8333333
Neighbor list builds = 252
Dangerous builds = 0

write_data data.${outfile} nocoeff nofix
write_data data.1708716397 nocoeff nofix
System init for write_data ...
Generated 0 of 0 mixed pair_coeff terms from geometric mixing rule
Total wall time: 0:00:00
