LAMMPS (21 Nov 2023)
OMP_NUM_THREADS environment is not set. Defaulting to 1 thread. (src/comm.cpp:98)
  using 1 OpenMP thread(s) per MPI task
###variable outfile string L15.17
###variable L equal 15.17

units lj

newton off
atom_style      sphere
boundary        p p p
comm_modify     mode single vel yes


region      boxid block 0.0     $L      0.0       $L      0.0       $L
region      boxid block 0.0     6.563429036687327      0.0       $L      0.0       $L
region      boxid block 0.0     6.563429036687327      0.0       6.563429036687327      0.0       $L
region      boxid block 0.0     6.563429036687327      0.0       6.563429036687327      0.0       6.563429036687327
#create_box  1 boxid
include create_box.in
create_box 1 boxid
Created orthogonal box = (0 0 0) to (6.563429 6.563429 6.563429)
  1 by 1 by 1 MPI processor grid


######
include create_np.in
create_atoms 1 random 108 9426 boxid
Created 108 atoms
  using lattice units in orthogonal box = (0 0 0) to (6.563429 6.563429 6.563429)
  create_atoms CPU = 0.000 seconds
velocity    all create 1.0 87287 dist gaussian

#####
include particles.in
set type 1 diameter 1.0
Setting atom values ...
  108 settings made for diameter
set type 1 mass 26.0
Setting atom values ...
  108 settings made for mass

###
fix 1 all langevin 1.0 1.0 0.1 12345
fix 2 all nve/sphere

###
pair_style lj/cut 1.
include pots_lj_lan.in
pair_coeff 1 1 10.0 1.0 1.122462048309373
pair_modify shift yes



minimize          1.0e-4 1.0e-6 1000 1000
Generated 0 of 0 mixed pair_coeff terms from geometric mixing rule
Neighbor list info ...
  update: every = 1 steps, delay = 0 steps, check = yes
  max neighbors/atom: 2000, page size: 100000
  master list distance cutoff = 1.422462
  ghost atom cutoff = 1.422462
  binsize = 0.71123102, bins = 10 10 10
  1 neighbor lists, perpetual/occasional/extra = 1 0 0
  (1) pair lj/cut, perpetual
      attributes: half, newton off
      pair build: half/bin/newtoff
      stencil: full/bin/3d
      bin: standard
Per MPI rank memory allocation (min/avg/max) = 5.446 | 5.446 | 5.446 Mbytes
   Step          Temp          E_pair         E_mol          TotEng         Press     
         0   49.656342      2.918893e+09   0              2.9188931e+09  4.4597674e+09
        33   49.656342      3.4657314e-11  0              73.794842      18.791705    
Loop time of 0.00145299 on 1 procs for 33 steps with 108 atoms

758.1% CPU use with 1 MPI tasks x 1 OpenMP threads

Minimization stats:
  Stopping criterion = quadratic factors are zero
  Energy initial, next-to-last, final = 
      2918893049.28976 3.46573140556454e-11 3.46573140556454e-11
  Force two-norm initial, final = 3.5676644e+13 0.0029251203
  Force max component initial, final = 1.9738482e+13 0.0015336058
  Final line search alpha, max atom move = 1 0.0015336058
  Iterations, force evaluations = 33 112

MPI task timing breakdown:
Section |  min time  |  avg time  |  max time  |%varavg| %total
---------------------------------------------------------------
Pair    | 0.00028429 | 0.00028429 | 0.00028429 |   0.0 | 19.57
Neigh   | 0.00063353 | 0.00063353 | 0.00063353 |   0.0 | 43.60
Comm    | 0.00032053 | 0.00032053 | 0.00032053 |   0.0 | 22.06
Output  | 0          | 0          | 0          |   0.0 |  0.00
Modify  | 0          | 0          | 0          |   0.0 |  0.00
Other   |            | 0.0002146  |            |       | 14.77

Nlocal:            108 ave         108 max         108 min
Histogram: 1 0 0 0 0 0 0 0 0 0
Nghost:            209 ave         209 max         209 min
Histogram: 1 0 0 0 0 0 0 0 0 0
Neighs:            318 ave         318 max         318 min
Histogram: 1 0 0 0 0 0 0 0 0 0

Total # of neighbors = 318
Ave neighs/atom = 2.9444444
Neighbor list builds = 12
Dangerous builds = 0

thermo_style custom step temp ke pe etotal
thermo 500
timestep 0.001
#dump    id all custom 5000 out_lan_${outfile}.lammpstrj id type radius mass xu yu zu vx vy vz fx fy fz
dump    id all custom 5000 out_lan_${outfile}.lammpstrj id type radius mass x y z
dump    id all custom 5000 out_lan_1708795656.lammpstrj id type radius mass x y z
run 100000
Generated 0 of 0 mixed pair_coeff terms from geometric mixing rule
Per MPI rank memory allocation (min/avg/max) = 4.322 | 4.322 | 4.322 Mbytes
   Step          Temp          KinEng         PotEng         TotEng    
        33   49.656342      73.794842      3.4657314e-11  73.794842    
       500   1.1020064      1.637704       0.38147176     2.0191758    
      1000   1.022261       1.5191935      0.21154776     1.7307412    
      1500   0.89507519     1.3301812      0.1852907      1.5154719    
      2000   0.97255385     1.4453231      0.15287314     1.5981962    
      2500   1.1458801      1.7029051      0.12418128     1.8270864    
      3000   0.82380523     1.2242661      0.10463571     1.3289018    
      3500   0.98132304     1.4583551      0.12014842     1.5785035    
      4000   1.0159545      1.5098213      0.12178116     1.6316025    
      4500   0.95803479     1.4237461      0.080773688    1.5045198    
      5000   0.9578524      1.4234751      0.18624473     1.6097198    
      5500   1.0569402      1.5707305      0.15904671     1.7297772    
      6000   1.0470896      1.5560914      0.078306975    1.6343984    
      6500   0.98146752     1.4585698      0.17344809     1.6320179    
      7000   1.1465679      1.7039273      0.16442005     1.8683473    
      7500   0.93204505     1.3851225      0.13369984     1.5188223    
      8000   1.0479721      1.557403       0.26722666     1.8246297    
      8500   1.1190005      1.6629591      0.15720795     1.8201671    
      9000   0.98984942     1.4710262      0.15441808     1.6254443    
      9500   0.97668865     1.4514679      0.11011037     1.5615782    
     10000   1.035049       1.5381978      0.13117394     1.6693718    
     10500   0.9980436      1.4832037      0.17090485     1.6541085    
     11000   0.99540465     1.4792819      0.16323047     1.6425124    
     11500   0.92812273     1.3792935      0.11918435     1.4984779    
     12000   0.93193201     1.3849545      0.13847624     1.5234308    
     12500   0.92193873     1.3701034      0.14677877     1.5168822    
     13000   1.039379       1.5446326      0.072630003    1.6172626    
     13500   1.1097472      1.6492077      0.17141993     1.8206276    
     14000   0.97055126     1.442347       0.18309597     1.625443     
     14500   1.0169557      1.5113091      0.11796708     1.6292762    
     15000   1.1022573      1.6380769      0.15634406     1.7944209    
     15500   0.99367147     1.4767062      0.085895612    1.5626018    
     16000   0.9863312      1.4657978      0.094865974    1.5606637    
     16500   1.0409326      1.5469414      0.12973478     1.6766762    
     17000   1.0168924      1.5112151      0.071778566    1.5829936    
     17500   0.90825642     1.34977        0.083564407    1.4333344    
     18000   1.104794       1.6418466      0.10831526     1.7501618    
     18500   1.0294336      1.5298527      0.090040796    1.6198935    
     19000   0.99903379     1.4846752      0.084609755    1.569285     
     19500   1.0146776      1.5079236      0.05906665     1.5669902    
     20000   0.96500181     1.4340999      0.14771864     1.5818185    
     20500   1.0646167      1.5821388      0.13553812     1.7176769    
     21000   0.97243737     1.44515        0.21083496     1.6559849    
     21500   0.94721985     1.4076739      0.069682243    1.4773562    
     22000   0.90331627     1.3424283      0.080552482    1.4229808    
     22500   0.9006078      1.3384033      0.075457953    1.4138612    
     23000   1.1624061      1.7274647      0.068374196    1.7958389    
     23500   1.0071464      1.4967314      0.10376248     1.6004939    
     24000   0.97884232     1.4546685      0.13037531     1.5850438    
     24500   0.94286721     1.4012054      0.16329091     1.5644963    
     25000   0.94640824     1.4064678      0.17346648     1.5799343    
     25500   0.94879176     1.41001        0.14278243     1.5527924    
     26000   0.9659748      1.4355459      0.11991868     1.5554646    
     26500   1.0503754      1.5609745      0.070183947    1.6311585    
     27000   0.97886369     1.4547002      0.11613975     1.57084      
     27500   1.0390393      1.5441278      0.072718014    1.6168458    
     28000   1.0170895      1.511508       0.10876042     1.6202684    
     28500   1.0639408      1.5811342      0.11515548     1.6962897    
     29000   1.0067864      1.4961964      0.15576211     1.6519586    
     29500   1.0911902      1.6216299      0.12586993     1.7474999    
     30000   1.0160703      1.5099933      0.083676283    1.5936696    
     30500   0.96618378     1.4358565      0.16662549     1.6024819    
     31000   1.027038       1.5262925      0.1531155      1.6794081    
     31500   0.94613755     1.4060655      0.14231782     1.5483833    
     32000   1.0801343      1.6051996      0.15841947     1.763619     
     32500   0.87847267     1.305508       0.11561314     1.4211211    
     33000   1.0212614      1.517708       0.1553967      1.6731047    
     33500   1.056891       1.5706574      0.11137571     1.6820331    
     34000   0.99423176     1.4775389      0.13068241     1.6082213    
     34500   1.0706283      1.5910726      0.16856308     1.7596357    
     35000   1.0206769      1.5168392      0.10325305     1.6200923    
     35500   0.97169039     1.4440399      0.10488175     1.5489216    
     36000   0.94961506     1.4112335      0.13613121     1.5473647    
     36500   1.0060091      1.4950413      0.11478559     1.6098269    
     37000   1.0657         1.5837485      0.10319157     1.6869401    
     37500   0.97367196     1.4469847      0.12216678     1.5691515    
     38000   0.99755824     1.4824824      0.11116351     1.5936459    
     38500   0.96620593     1.4358894      0.19475313     1.6306425    
     39000   1.0025511      1.4899024      0.094260158    1.5841625    
     39500   1.0692695      1.5890533      0.12092298     1.7099763    
     40000   1.0747803      1.597243       0.121799       1.719042     
     40500   1.0034167      1.4911887      0.12368419     1.6148729    
     41000   1.0545136      1.5671243      0.1428178      1.7099421    
     41500   1.0494482      1.5595966      0.16349803     1.7230947    
     42000   1.1072256      1.6454602      0.084037025    1.7294973    
     42500   0.9850189      1.4638475      0.1314462      1.5952937    
     43000   0.87766634     1.3043097      0.136903       1.4412127    
     43500   1.0767031      1.6001005      0.11735141     1.7174519    
     44000   1.0539493      1.5662858      0.096640533    1.6629264    
     44500   0.93425476     1.3884064      0.11838348     1.5067899    
     45000   1.0613592      1.5772978      0.12659134     1.7038891    
     45500   1.0419902      1.5485132      0.14977837     1.6982916    
     46000   0.9143278      1.3587927      0.15867796     1.5174707    
     46500   1.0138518      1.5066964      0.11533181     1.6220282    
     47000   1.1641285      1.7300243      0.112132       1.8421563    
     47500   0.98376307     1.4619812      0.056140734    1.518122     
     48000   0.93961027     1.3963653      0.11747819     1.5138434    
     48500   1.0013573      1.4881283      0.13903478     1.6271631    
     49000   1.0313568      1.5327108      0.12782497     1.6605357    
     49500   0.92625461     1.3765173      0.08266197     1.4591792    
     50000   0.95793413     1.4235966      0.07255263     1.4961492    
     50500   0.96385646     1.4323978      0.14797342     1.5803712    
     51000   0.90669519     1.3474498      0.083309056    1.4307588    
     51500   1.0920741      1.6229434      0.13417901     1.7571224    
     52000   0.95805085     1.42377        0.14820357     1.5719736    
     52500   0.9108421      1.3536126      0.1519557      1.5055683    
     53000   0.92080143     1.3684132      0.11215729     1.4805705    
     53500   1.0355982      1.5390139      0.052505169    1.5915191    
     54000   1.07193        1.5930071      0.12519466     1.7182018    
     54500   1.0546056      1.5672612      0.085307496    1.6525686    
     55000   0.88643786     1.3173452      0.060793786    1.3781389    
     55500   0.96172801     1.4292347      0.042276375    1.4715111    
     56000   1.0061696      1.4952798      0.10586758     1.6011474    
     56500   0.94371049     1.4024586      0.12159802     1.5240567    
     57000   0.95153896     1.4140926      0.10213288     1.5162255    
     57500   1.0546351      1.5673049      0.11502309     1.682328     
     58000   0.9767367      1.4515393      0.11248831     1.5640276    
     58500   1.0210946      1.51746        0.13271158     1.6501716    
     59000   0.97654724     1.4512577      0.11987497     1.5711327    
     59500   0.92685537     1.3774101      0.11040955     1.4878196    
     60000   0.84966295     1.2626936      0.11400845     1.376702     
     60500   0.89982264     1.3372364      0.085246315    1.4224827    
     61000   0.98848727     1.4690019      0.11232952     1.5813314    
     61500   0.93011359     1.3822521      0.17931538     1.5615675    
     62000   1.0735411      1.5954013      0.16450964     1.759911     
     62500   0.95231416     1.4152447      0.070358002    1.4856027    
     63000   1.0661441      1.5844086      0.079034993    1.6634436    
     63500   1.1592371      1.7227551      0.11961864     1.8423737    
     64000   1.1112288      1.6514095      0.12864843     1.780058     
     64500   0.94346407     1.4020924      0.13666119     1.5387536    
     65000   0.90675175     1.3475339      0.13689742     1.4844313    
     65500   1.1137085      1.6550946      0.13696121     1.7920558    
     66000   1.0881757      1.61715        0.11036117     1.7275112    
     66500   1.1053536      1.6426782      0.13219175     1.77487      
     67000   1.0174805      1.5120891      0.12902444     1.6411136    
     67500   1.1100841      1.6497083      0.087621839    1.7373301    
     68000   0.91166183     1.3548308      0.089652198    1.444483     
     68500   0.92157326     1.3695603      0.091772648    1.4613329    
     69000   0.95303327     1.4163133      0.048752729    1.4650661    
     69500   1.0345481      1.5374535      0.10665496     1.6441084    
     70000   1.1773134      1.7496185      0.093253541    1.842872     
     70500   0.92275555     1.3713173      0.053857525    1.4251748    
     71000   0.9819875      1.4593425      0.13977239     1.5991149    
     71500   0.96144863     1.4288195      0.1033448      1.5321643    
     72000   0.9946219      1.4781187      0.080110113    1.5582288    
     72500   0.97022329     1.4418596      0.095136599    1.5369962    
     73000   0.94287877     1.4012226      0.099703442    1.5009261    
     73500   0.95095845     1.4132299      0.12121516     1.5344451    
     74000   0.93588684     1.3908318      0.093245736    1.4840776    
     74500   0.88030871     1.3082366      0.032861372    1.3410979    
     75000   0.87880925     1.3060082      0.077210703    1.3832189    
     75500   0.97489372     1.4488004      0.045646321    1.4944467    
     76000   1.033804       1.5363476      0.062217109    1.5985647    
     76500   1.1714717      1.7409371      0.13649347     1.8774306    
     77000   1.1658015      1.7325106      0.13914526     1.8716558    
     77500   0.90596542     1.3463653      0.063226481    1.4095918    
     78000   0.98592693     1.465197       0.13330602     1.598503     
     78500   1.1506268      1.7099592      0.15658916     1.8665484    
     79000   0.85835446     1.2756101      0.079247569    1.3548577    
     79500   1.1582718      1.7213205      0.1587202      1.8800407    
     80000   0.92330306     1.3721309      0.071724857    1.4438558    
     80500   0.95086142     1.4130857      0.11644066     1.5295264    
     81000   1.1111188      1.6512459      0.10317834     1.7544243    
     81500   1.0720555      1.5931936      0.067617896    1.6608115    
     82000   0.99422674     1.4775314      0.056550164    1.5340816    
     82500   0.95339424     1.4168498      0.10116915     1.5180189    
     83000   0.92899238     1.3805859      0.069666025    1.4502519    
     83500   0.98579092     1.4649948      0.081759518    1.5467544    
     84000   1.0886953      1.6179222      0.035217393    1.6531396    
     84500   1.0720713      1.593217       0.081273577    1.6744906    
     85000   1.0204377      1.5164837      0.10479464     1.6212784    
     85500   0.96585604     1.4353694      0.076608468    1.5119779    
     86000   1.0086769      1.499006       0.11001093     1.6090169    
     86500   1.0414089      1.5476494      0.11756426     1.6652137    
     87000   1.0031427      1.4907816      0.089139297    1.5799209    
     87500   1.1103705      1.6501339      0.042272205    1.6924061    
     88000   1.0570016      1.5708219      0.082704845    1.6535267    
     88500   1.0181465      1.5130788      0.12548304     1.6385618    
     89000   0.84950841     1.2624639      0.082059333    1.3445232    
     89500   0.95892561     1.42507        0.15614876     1.5812188    
     90000   0.97967726     1.4559093      0.11588234     1.5717916    
     90500   0.87617459     1.3020928      0.10519505     1.4072878    
     91000   0.97762437     1.4528584      0.035747993    1.4886064    
     91500   1.0108997      1.5023093      0.12168516     1.6239945    
     92000   1.0001893      1.4863924      0.11587844     1.6022709    
     92500   1.0496727      1.5599302      0.073454309    1.6333845    
     93000   0.92180421     1.3699035      0.094894136    1.4647976    
     93500   1.0344327      1.5372819      0.082989193    1.6202711    
     94000   0.98128217     1.4582943      0.11525438     1.5735487    
     94500   0.99593245     1.4800663      0.10428328     1.5843496    
     95000   0.96369593     1.4321592      0.067528126    1.4996874    
     95500   0.96667114     1.4365807      0.10377712     1.5403578    
     96000   1.0559871      1.5693141      0.11625823     1.6855724    
     96500   0.83092022     1.2348398      0.11388479     1.3487246    
     97000   1.0197541      1.5154678      0.099363824    1.6148317    
     97500   1.0294434      1.5298673      0.077265791    1.6071331    
     98000   0.84745997     1.2594197      0.060505547    1.3199252    
     98500   1.0440917      1.5516363      0.10138246     1.6530188    
     99000   1.1809776      1.7550639      0.054450879    1.8095148    
     99500   1.0586345      1.5732485      0.083432663    1.6566812    
    100000   0.86558384     1.2863538      0.050233336    1.3365871    
    100033   0.89572501     1.3311469      0.058601902    1.3897488    
Loop time of 0.844352 on 1 procs for 100000 steps with 108 atoms

Performance: 10232702.261 tau/day, 118434.054 timesteps/s, 12.791 Matom-step/s
131.9% CPU use with 1 MPI tasks x 1 OpenMP threads

MPI task timing breakdown:
Section |  min time  |  avg time  |  max time  |%varavg| %total
---------------------------------------------------------------
Pair    | 0.092083   | 0.092083   | 0.092083   |   0.0 | 10.91
Neigh   | 0.012193   | 0.012193   | 0.012193   |   0.0 |  1.44
Comm    | 0.15364    | 0.15364    | 0.15364    |   0.0 | 18.20
Output  | 0.0047936  | 0.0047936  | 0.0047936  |   0.0 |  0.57
Modify  | 0.5517     | 0.5517     | 0.5517     |   0.0 | 65.34
Other   |            | 0.02994    |            |       |  3.55

Nlocal:            108 ave         108 max         108 min
Histogram: 1 0 0 0 0 0 0 0 0 0
Nghost:            210 ave         210 max         210 min
Histogram: 1 0 0 0 0 0 0 0 0 0
Neighs:            275 ave         275 max         275 min
Histogram: 1 0 0 0 0 0 0 0 0 0

Total # of neighbors = 275
Ave neighs/atom = 2.5462963
Neighbor list builds = 293
Dangerous builds = 0

write_data data.${outfile} nocoeff nofix
write_data data.1708795656 nocoeff nofix
System init for write_data ...
Generated 0 of 0 mixed pair_coeff terms from geometric mixing rule
Total wall time: 0:00:00
