LAMMPS (21 Nov 2023)
OMP_NUM_THREADS environment is not set. Defaulting to 1 thread. (src/comm.cpp:98)
  using 1 OpenMP thread(s) per MPI task
###variable outfile string L15.17
###variable L equal 15.17

units lj

newton off
atom_style      sphere
boundary        p p p
comm_modify     mode single vel yes


region      boxid block 0.0     $L      0.0       $L      0.0       $L
region      boxid block 0.0     5.008833798856052      0.0       $L      0.0       $L
region      boxid block 0.0     5.008833798856052      0.0       5.008833798856052      0.0       $L
region      boxid block 0.0     5.008833798856052      0.0       5.008833798856052      0.0       5.008833798856052
#create_box  1 boxid
include create_box.in
create_box 1 boxid
Created orthogonal box = (0 0 0) to (5.0088338 5.0088338 5.0088338)
  1 by 1 by 1 MPI processor grid


######
include create_np.in
create_atoms 1 random 72 7053 boxid
Created 72 atoms
  using lattice units in orthogonal box = (0 0 0) to (5.0088338 5.0088338 5.0088338)
  create_atoms CPU = 0.000 seconds
velocity    all create 1.0 87287 dist gaussian

#####
include particles.in
set type 1 diameter 1.0
Setting atom values ...
  72 settings made for diameter
set type 1 mass 26.0
Setting atom values ...
  72 settings made for mass

###
fix 1 all langevin 1.0 1.0 0.1 12345
fix 2 all nve/sphere

###
pair_style lj/cut 1.
include pots_lj_lan.in
pair_coeff 1 1 10.0 1.0 1.122462048309373
pair_modify shift yes



minimize          1.0e-4 1.0e-6 1000 1000
Generated 0 of 0 mixed pair_coeff terms from geometric mixing rule
Neighbor list info ...
  update: every = 1 steps, delay = 0 steps, check = yes
  max neighbors/atom: 2000, page size: 100000
  master list distance cutoff = 1.422462
  ghost atom cutoff = 1.422462
  binsize = 0.71123102, bins = 8 8 8
  1 neighbor lists, perpetual/occasional/extra = 1 0 0
  (1) pair lj/cut, perpetual
      attributes: half, newton off
      pair build: half/bin/newtoff
      stencil: full/bin/3d
      bin: standard
Per MPI rank memory allocation (min/avg/max) = 5.442 | 5.442 | 5.442 Mbytes
   Step          Temp          E_pair         E_mol          TotEng         Press     
         0   49.656342      1.6338911e+12  0              1.6338911e+12  3.7446038e+12
        42   49.656342      5.795606e-11   0              73.450006      28.055842    
Loop time of 0.00145418 on 1 procs for 42 steps with 72 atoms

0.0% CPU use with 1 MPI tasks x 1 OpenMP threads

Minimization stats:
  Stopping criterion = quadratic factors are zero
  Energy initial, next-to-last, final = 
       1633891125750.8 5.79560597044646e-11 5.79560597044646e-11
  Force two-norm initial, final = 2.180124e+16 0.0030885208
  Force max component initial, final = 1.296656e+16 0.001897222
  Final line search alpha, max atom move = 0.5 0.00094861101
  Iterations, force evaluations = 42 150

MPI task timing breakdown:
Section |  min time  |  avg time  |  max time  |%varavg| %total
---------------------------------------------------------------
Pair    | 0.00044926 | 0.00044926 | 0.00044926 |   0.0 | 30.89
Neigh   | 0.0004278  | 0.0004278  | 0.0004278  |   0.0 | 29.42
Comm    | 0.00038718 | 0.00038718 | 0.00038718 |   0.0 | 26.63
Output  | 0          | 0          | 0          |   0.0 |  0.00
Modify  | 0          | 0          | 0          |   0.0 |  0.00
Other   |            | 0.0001899  |            |       | 13.06

Nlocal:             72 ave          72 max          72 min
Histogram: 1 0 0 0 0 0 0 0 0 0
Nghost:            194 ave         194 max         194 min
Histogram: 1 0 0 0 0 0 0 0 0 0
Neighs:            346 ave         346 max         346 min
Histogram: 1 0 0 0 0 0 0 0 0 0

Total # of neighbors = 346
Ave neighs/atom = 4.8055556
Neighbor list builds = 10
Dangerous builds = 0

thermo_style custom step temp ke pe etotal
thermo 500
timestep 0.001
#dump    id all custom 5000 out_lan_${outfile}.lammpstrj id type radius mass xu yu zu vx vy vz fx fy fz
dump    id all custom 5000 out_lan_${outfile}.lammpstrj id type radius mass x y z
dump    id all custom 5000 out_lan_1709054184.lammpstrj id type radius mass x y z
run 100000
Generated 0 of 0 mixed pair_coeff terms from geometric mixing rule
Per MPI rank memory allocation (min/avg/max) = 4.317 | 4.317 | 4.317 Mbytes
   Step          Temp          KinEng         PotEng         TotEng    
        42   49.656342      73.450006      5.795606e-11   73.450006    
       500   1.0490528      1.5517239      0.60731748     2.1590414    
      1000   1.0328301      1.5277279      0.40450906     1.9322369    
      1500   0.96398243     1.4258907      0.42510295     1.8509936    
      2000   1.0709789      1.5841563      0.40417305     1.9883294    
      2500   1.1415898      1.6886016      0.38010689     2.0687085    
      3000   0.98831698     1.4618855      0.34416398     1.8060495    
      3500   1.0310504      1.5250953      0.27908478     1.8041801    
      4000   1.0882778      1.6097442      0.47243001     2.0821742    
      4500   1.0939165      1.6180848      0.31694792     1.9350327    
      5000   1.1710436      1.7321687      0.29752277     2.0296915    
      5500   0.97884096     1.4478689      0.37585256     1.8237215    
      6000   1.1524231      1.7046259      0.44709392     2.1517198    
      6500   0.93376716     1.3811973      0.35371893     1.7349162    
      7000   0.96162548     1.4224044      0.30090823     1.7233126    
      7500   1.2388389      1.8324492      0.37976903     2.2122182    
      8000   0.9450735      1.3979212      0.24697754     1.6448988    
      8500   1.0608081      1.5691119      0.42279501     1.991907     
      9000   1.3167         1.9476187      0.26797595     2.2155947    
      9500   1.1153615      1.6498056      0.36149125     2.0112969    
     10000   0.98766447     1.4609204      0.23126914     1.6921895    
     10500   0.89115303     1.3181639      0.35724389     1.6754078    
     11000   0.99050986     1.4651292      0.32843004     1.7935592    
     11500   1.1077025      1.6384766      0.23416887     1.8726454    
     12000   0.84647451     1.2520769      0.2811754      1.5332523    
     12500   0.86382531     1.2777416      0.40046822     1.6782098    
     13000   0.95441686     1.4117416      0.2521559      1.6638975    
     13500   1.212789       1.7939171      0.25427064     2.0481878    
     14000   1.0308419      1.524787       0.26876436     1.7935513    
     14500   1.016133       1.5030301      0.31833227     1.8213624    
     15000   0.89002931     1.3165017      0.1816703      1.498172     
     15500   1.0175513      1.505128       0.19992738     1.7050554    
     16000   1.0405935      1.5392112      0.34514782     1.884359     
     16500   0.835472       1.2358023      0.29431021     1.5301125    
     17000   0.97868612     1.4476399      0.29603731     1.7436772    
     17500   0.97969389     1.4491305      0.27947571     1.7286063    
     18000   1.0135625      1.4992278      0.31299181     1.8122196    
     18500   0.95723367     1.4159081      0.30744217     1.7233503    
     19000   1.0279675      1.5205352      0.16824707     1.6887823    
     19500   0.99179981     1.4670372      0.29499005     1.7620273    
     20000   1.1361909      1.6806158      0.23487435     1.9154901    
     20500   0.75584266     1.1180173      0.1953111      1.3133284    
     21000   0.96683729     1.4301135      0.37359942     1.8037129    
     21500   0.96081023     1.4211985      0.22238417     1.6435826    
     22000   1.0021393      1.4823311      0.18418185     1.6665129    
     22500   1.0584478      1.5656207      0.22705222     1.7926729    
     23000   1.091923       1.6151361      0.35032361     1.9654598    
     23500   0.90817711     1.3433453      0.27232429     1.6156696    
     24000   0.93269925     1.3796176      0.16232723     1.5419449    
     24500   1.0279309      1.5204811      0.2455228      1.7660039    
     25000   1.0318286      1.5262464      0.20952968     1.7357761    
     25500   1.085366       1.6054372      0.19465055     1.8000877    
     26000   0.9715677      1.4371105      0.23517472     1.6722853    
     26500   1.1718579      1.7333732      0.28266747     2.0160407    
     27000   0.92179526     1.3634888      0.39497407     1.7584629    
     27500   0.91147123     1.3482179      0.40436876     1.7525866    
     28000   1.0476115      1.549592       0.28981661     1.8394086    
     28500   1.1479318      1.6979825      0.28722807     1.9852105    
     29000   1.1221292      1.6598161      0.21453823     1.8743544    
     29500   0.77016212     1.1391981      0.23401174     1.3732099    
     30000   0.87036145     1.2874096      0.4003053      1.6877149    
     30500   1.0698249      1.5824493      0.29201613     1.8744654    
     31000   1.0267751      1.5187715      0.18586043     1.7046319    
     31500   0.88296271     1.306049       0.15172932     1.4577783    
     32000   1.1832509      1.7502254      0.29050802     2.0407334    
     32500   0.94104964     1.3919693      0.25064824     1.6426175    
     33000   0.9685626      1.4326655      0.28642365     1.7190892    
     33500   0.95441825     1.4117437      0.35029146     1.7620351    
     34000   1.0513733      1.5551563      0.30617676     1.861333     
     34500   1.0389999      1.5368541      0.27196128     1.8088153    
     35000   1.1326091      1.6753177      0.2872306      1.9625483    
     35500   1.0396741      1.5378513      0.18709422     1.7249455    
     36000   1.3142263      1.9439597      0.38900722     2.3329669    
     36500   1.0724423      1.586321       0.22903786     1.8153588    
     37000   0.99619361     1.4735364      0.23360393     1.7071403    
     37500   0.9862913      1.4588892      0.25530593     1.7141951    
     38000   1.006102       1.4881925      0.16055791     1.6487504    
     38500   1.0413667      1.5403549      0.27069574     1.8110506    
     39000   1.0681942      1.5800372      0.2028851      1.7829223    
     39500   0.90772976     1.3426836      0.29054769     1.6332313    
     40000   0.9427623      1.3945026      0.30486511     1.6993677    
     40500   1.0983001      1.6245689      0.37841266     2.0029815    
     41000   0.97429474     1.4411443      0.38697133     1.8281156    
     41500   1.0641481      1.5740524      0.41518373     1.9892361    
     42000   1.1025432      1.6308452      0.33607809     1.9669233    
     42500   1.0851924      1.6051804      0.38949272     1.9946731    
     43000   0.98890117     1.4627496      0.36416711     1.8269168    
     43500   1.0513352      1.5551         0.23678488     1.7918849    
     44000   0.98404042     1.4555598      0.36227878     1.8178386    
     44500   0.96967177     1.4343062      0.21086455     1.6451707    
     45000   1.0811294      1.5991706      0.28720809     1.8863787    
     45500   1.0468195      1.5484205      0.31074032     1.8591608    
     46000   1.0355973      1.531821       0.2165226      1.7483436    
     46500   1.0743557      1.5891512      0.21138368     1.8005348    
     47000   1.0221118      1.5118738      0.20517865     1.7170524    
     47500   0.95984192     1.4197662      0.28624807     1.7060142    
     48000   0.95825192     1.4174143      0.24703234     1.6644466    
     48500   0.95833048     1.4175305      0.34990604     1.7674365    
     49000   0.95380167     1.4108316      0.27925293     1.6900846    
     49500   1.0530175      1.5575884      0.25378337     1.8113717    
     50000   1.1878681      1.757055       0.30219091     2.0592459    
     50500   0.87201962     1.2898624      0.26654674     1.5564091    
     51000   1.0467176      1.5482698      0.34617581     1.8944456    
     51500   0.86765624     1.2834082      0.27785848     1.5612667    
     52000   1.0073466      1.4900335      0.19567425     1.6857078    
     52500   0.96926931     1.4337109      0.28856868     1.7222795    
     53000   1.1344422      1.6780291      0.25238069     1.9304098    
     53500   0.9349167      1.3828976      0.35884249     1.7417401    
     54000   1.1011337      1.6287603      0.32331863     1.952079     
     54500   0.88511291     1.3092295      0.32727029     1.6364998    
     55000   0.94944936     1.4043938      0.26554526     1.6699391    
     55500   0.97951373     1.4488641      0.23714627     1.6860103    
     56000   0.96223318     1.4233032      0.20230278     1.625606     
     56500   1.0616739      1.5703926      0.20732944     1.7777221    
     57000   0.95930764     1.4189759      0.25697761     1.6759535    
     57500   1.0937917      1.6179002      0.32355258     1.9414528    
     58000   0.95492945     1.4124998      0.27292708     1.6854269    
     58500   1.106625       1.6368827      0.25415163     1.8910344    
     59000   1.1793538      1.7444609      0.21330213     1.957763     
     59500   1.0592695      1.5668361      0.34112012     1.9079563    
     60000   0.95167598     1.4076874      0.24435012     1.6520375    
     60500   1.0730141      1.5871666      0.15997497     1.7471416    
     61000   0.92926311     1.374535       0.21624522     1.5907802    
     61500   1.0737235      1.588216       0.28240064     1.8706166    
     62000   0.92861978     1.3735834      0.1789529      1.5525363    
     62500   1.2146143      1.796617       0.14928729     1.9459043    
     63000   1.1428174      1.6904175      0.12557602     1.8159935    
     63500   0.94350956     1.3956079      0.14342374     1.5390316    
     64000   0.82345723     1.2180305      0.25236812     1.4703986    
     64500   1.0592852      1.5668594      0.25640071     1.8232601    
     65000   1.0330971      1.5281228      0.23702412     1.7651469    
     65500   0.80410782     1.1894095      0.29989384     1.4893033    
     66000   1.0107321      1.4950412      0.32257502     1.8176162    
     66500   0.95038783     1.405782       0.20340222     1.6091842    
     67000   0.84612669     1.2515624      0.19122257     1.442785     
     67500   0.86292536     1.2764104      0.26357963     1.5399901    
     68000   1.0001341      1.4793651      0.1464251      1.6257902    
     68500   0.95851706     1.4178065      0.26169659     1.6795031    
     69000   1.0303704      1.5240896      0.22215221     1.7462418    
     69500   0.99927634     1.4780963      0.26570478     1.743801     
     70000   1.1541166      1.7071308      0.2517418      1.9588726    
     70500   0.95483518     1.4123604      0.37251239     1.7848728    
     71000   1.1771244      1.7411631      0.24502228     1.9861854    
     71500   1.0054837      1.4872779      0.18210731     1.6693852    
     72000   1.1590969      1.7144974      0.30375427     2.0182517    
     72500   1.0844827      1.6041306      0.35074871     1.9548794    
     73000   1.1064531      1.6366285      0.27376196     1.9103905    
     73500   1.2377682      1.8308655      0.43775837     2.2686238    
     74000   0.86778577     1.2835998      0.24402769     1.5276275    
     74500   1.0264149      1.5182387      0.31118244     1.8294211    
     75000   0.84912682     1.2560001      0.20141566     1.4574158    
     75500   1.1124194      1.6454537      0.15299168     1.7984454    
     76000   0.90589668     1.3399722      0.21689688     1.556869     
     76500   1.1440371      1.6922216      0.3269224      2.019144     
     77000   1.1477184      1.6976668      0.20748934     1.9051562    
     77500   1.1240141      1.6626042      0.30618536     1.9687896    
     78000   0.94010337     1.3905696      0.18272789     1.5732975    
     78500   0.98099307     1.4510522      0.25301392     1.7040662    
     79000   1.0204789      1.5094583      0.22457682     1.7340352    
     79500   1.0297746      1.5232083      0.14612373     1.6693321    
     80000   1.0083023      1.4914472      0.10500324     1.5964504    
     80500   0.95198387     1.4081428      0.24253459     1.6506774    
     81000   0.91520727     1.3537441      0.19698906     1.5507332    
     81500   1.0267904      1.5187941      0.16202813     1.6808222    
     82000   1.1682736      1.7280713      0.38562893     2.1137003    
     82500   0.93081263     1.376827       0.30776609     1.6845931    
     83000   1.1095526      1.6412132      0.28656769     1.9277809    
     83500   0.88987753     1.3162772      0.23273956     1.5490167    
     84000   0.96712755     1.4305428      0.22399578     1.6545386    
     84500   1.0770367      1.5931168      0.30040307     1.8935199    
     85000   1.1117983      1.6445349      0.28131945     1.9258544    
     85500   0.89240296     1.3200127      0.28999669     1.6100094    
     86000   1.1163278      1.6512349      0.39679859     2.0480335    
     86500   1.1038962      1.6328465      0.25259331     1.8854398    
     87000   0.98290632     1.4538823      0.27101041     1.7248927    
     87500   0.98475552     1.4566175      0.18264226     1.6392598    
     88000   1.0050934      1.4867007      0.32283494     1.8095357    
     88500   0.91408625     1.3520859      0.38245956     1.7345455    
     89000   1.1916038      1.7625807      0.23316979     1.9957504    
     89500   0.91493423     1.3533402      0.28473634     1.6380766    
     90000   0.90040577     1.3318502      0.41122509     1.7430753    
     90500   0.88823113     1.3138419      0.29006549     1.6039074    
     91000   1.1515234      1.703295       0.22197472     1.9252697    
     91500   0.99672201     1.474318       0.22626382     1.7005818    
     92000   0.98650492     1.4592052      0.28563181     1.744837     
     92500   1.0157619      1.5024811      0.39118224     1.8936633    
     93000   1.0637079      1.5734012      0.41443915     1.9878404    
     93500   1.0847674      1.6045518      0.23927523     1.8438271    
     94000   1.0183228      1.5062691      0.35523924     1.8615084    
     94500   1.0110798      1.4955555      0.43310289     1.9286584    
     95000   0.97164275     1.4372216      0.27795384     1.7151754    
     95500   1.1029001      1.631373       0.28849014     1.9198631    
     96000   1.0499058      1.5529857      0.34230279     1.8952885    
     96500   1.0505779      1.5539799      0.17025276     1.7242326    
     97000   0.84952433     1.2565881      0.33517904     1.5917671    
     97500   0.96705789     1.4304398      0.20753232     1.6379721    
     98000   1.0577256      1.5645525      0.2641946      1.8287471    
     98500   1.0921568      1.6154819      0.33971041     1.9551923    
     99000   0.97191371     1.4376224      0.25949352     1.6971159    
     99500   0.87301787     1.2913389      0.28915822     1.5804972    
    100000   1.1226496      1.6605859      0.16036989     1.8209558    
    100042   0.98291194     1.4538906      0.14786968     1.6017603    
Loop time of 0.674543 on 1 procs for 100000 steps with 72 atoms

Performance: 12808680.167 tau/day, 148248.613 timesteps/s, 10.674 Matom-step/s
126.1% CPU use with 1 MPI tasks x 1 OpenMP threads

MPI task timing breakdown:
Section |  min time  |  avg time  |  max time  |%varavg| %total
---------------------------------------------------------------
Pair    | 0.11032    | 0.11032    | 0.11032    |   0.0 | 16.36
Neigh   | 0.0097519  | 0.0097519  | 0.0097519  |   0.0 |  1.45
Comm    | 0.14892    | 0.14892    | 0.14892    |   0.0 | 22.08
Output  | 0.0033338  | 0.0033338  | 0.0033338  |   0.0 |  0.49
Modify  | 0.3779     | 0.3779     | 0.3779     |   0.0 | 56.02
Other   |            | 0.02431    |            |       |  3.60

Nlocal:             72 ave          72 max          72 min
Histogram: 1 0 0 0 0 0 0 0 0 0
Nghost:            206 ave         206 max         206 min
Histogram: 1 0 0 0 0 0 0 0 0 0
Neighs:            334 ave         334 max         334 min
Histogram: 1 0 0 0 0 0 0 0 0 0

Total # of neighbors = 334
Ave neighs/atom = 4.6388889
Neighbor list builds = 267
Dangerous builds = 0

write_data data.${outfile} nocoeff nofix
write_data data.1709054184 nocoeff nofix
System init for write_data ...
Generated 0 of 0 mixed pair_coeff terms from geometric mixing rule
Total wall time: 0:00:00
