LAMMPS (21 Nov 2023)
OMP_NUM_THREADS environment is not set. Defaulting to 1 thread. (src/comm.cpp:98)
  using 1 OpenMP thread(s) per MPI task
###variable outfile string L15.17
###variable L equal 15.17

units lj

newton off
atom_style      sphere
boundary        p p p
comm_modify     mode single vel yes


region      boxid block 0.0     $L      0.0       $L      0.0       $L
region      boxid block 0.0     5.7337      0.0       $L      0.0       $L
region      boxid block 0.0     5.7337      0.0       5.7337      0.0       $L
region      boxid block 0.0     5.7337      0.0       5.7337      0.0       5.7337
#create_box  1 boxid
include create_box.in
create_box 1 boxid
Created orthogonal box = (0 0 0) to (5.7337 5.7337 5.7337)
  1 by 1 by 1 MPI processor grid


######
include create_np.in
create_atoms 1 random 72 1427 boxid
Created 72 atoms
  using lattice units in orthogonal box = (0 0 0) to (5.7337 5.7337 5.7337)
  create_atoms CPU = 0.001 seconds
velocity    all create 1.0 87287 dist gaussian

#####
include particles.in
set type 1 diameter 1.0
Setting atom values ...
  72 settings made for diameter
set type 1 mass 26.0
Setting atom values ...
  72 settings made for mass

###
fix 1 all langevin 1.0 1.0 0.1 12345
fix 2 all nve/sphere

###
pair_style lj/cut 1.
include pots_lj_lan.in
pair_coeff 1 1 10.0 1.0 1.122462048309373
pair_modify shift yes



minimize          1.0e-4 1.0e-6 1000 1000
Generated 0 of 0 mixed pair_coeff terms from geometric mixing rule
Neighbor list info ...
  update: every = 1 steps, delay = 0 steps, check = yes
  max neighbors/atom: 2000, page size: 100000
  master list distance cutoff = 1.422462
  ghost atom cutoff = 1.422462
  binsize = 0.71123102, bins = 9 9 9
  1 neighbor lists, perpetual/occasional/extra = 1 0 0
  (1) pair lj/cut, perpetual
      attributes: half, newton off
      pair build: half/bin/newtoff
      stencil: full/bin/3d
      bin: standard
Per MPI rank memory allocation (min/avg/max) = 5.444 | 5.444 | 5.444 Mbytes
   Step          Temp          E_pair         E_mol          TotEng         Press     
         0   49.656342      23004070       0              23004144       35151198     
        38   49.656342      3.1150539e-11  0              73.450006      18.703731    
Loop time of 0.00140389 on 1 procs for 38 steps with 72 atoms

0.0% CPU use with 1 MPI tasks x 1 OpenMP threads

Minimization stats:
  Stopping criterion = quadratic factors are zero
  Energy initial, next-to-last, final = 
      23004070.4945503 3.11505389384416e-11 3.11505389384416e-11
  Force two-norm initial, final = 1.1528408e+11 0.0022642853
  Force max component initial, final = 5.6723649e+10 0.0013960127
  Final line search alpha, max atom move = 1 0.0013960127
  Iterations, force evaluations = 38 152

MPI task timing breakdown:
Section |  min time  |  avg time  |  max time  |%varavg| %total
---------------------------------------------------------------
Pair    | 0.00030436 | 0.00030436 | 0.00030436 |   0.0 | 21.68
Neigh   | 0.00037206 | 0.00037206 | 0.00037206 |   0.0 | 26.50
Comm    | 0.00038199 | 0.00038199 | 0.00038199 |   0.0 | 27.21
Output  | 0          | 0          | 0          |   0.0 |  0.00
Modify  | 0          | 0          | 0          |   0.0 |  0.00
Other   |            | 0.0003455  |            |       | 24.61

Nlocal:             72 ave          72 max          72 min
Histogram: 1 0 0 0 0 0 0 0 0 0
Nghost:            190 ave         190 max         190 min
Histogram: 1 0 0 0 0 0 0 0 0 0
Neighs:            222 ave         222 max         222 min
Histogram: 1 0 0 0 0 0 0 0 0 0

Total # of neighbors = 222
Ave neighs/atom = 3.0833333
Neighbor list builds = 10
Dangerous builds = 0

thermo_style custom step temp ke pe etotal
thermo 500
timestep 0.001
#dump    id all custom 5000 out_lan_${outfile}.lammpstrj id type radius mass xu yu zu vx vy vz fx fy fz
dump    id all custom 5000 out_lan_${outfile}.lammpstrj id type radius mass x y z
dump    id all custom 5000 out_lan_1708720318.lammpstrj id type radius mass x y z
run 100000
Generated 0 of 0 mixed pair_coeff terms from geometric mixing rule
Per MPI rank memory allocation (min/avg/max) = 4.319 | 4.319 | 4.319 Mbytes
   Step          Temp          KinEng         PotEng         TotEng    
        38   49.656342      73.450006      3.1150539e-11  73.450006    
       500   0.9815145      1.4518235      0.3265691      1.7783926    
      1000   0.96880345     1.4330218      0.21195597     1.6449777    
      1500   0.97891385     1.4479767      0.15227479     1.6002515    
      2000   1.0987145      1.6251818      0.21629084     1.8414727    
      2500   1.1566736      1.7109131      0.21953373     1.9304468    
      3000   1.0089618      1.4924226      0.19607269     1.6884953    
      3500   0.95026141     1.405595       0.13931898     1.544914     
      4000   1.0042388      1.4854366      0.16947377     1.6549104    
      4500   1.0582821      1.5653756      0.14179064     1.7071662    
      5000   1.3080359      1.9348031      0.14887981     2.0836829    
      5500   1.0464103      1.5478152      0.14128133     1.6890965    
      6000   1.1331551      1.6761253      0.1627546      1.8388799    
      6500   0.98319824     1.4543141      0.10412652     1.5584406    
      7000   0.92058291     1.3616956      0.12363354     1.4853291    
      7500   1.194498       1.7668616      0.11034728     1.8772088    
      8000   0.92555315     1.3690474      0.062514074    1.4315614    
      8500   1.1465003      1.695865       0.15211881     1.8479839    
      9000   1.1476332      1.6975407      0.13047786     1.8280186    
      9500   1.0741461      1.5888412      0.14508867     1.7339298    
     10000   1.0107118      1.4950112      0.095114375    1.5901256    
     10500   0.90571047     1.3396967      0.11440588     1.4541026    
     11000   1.0238228      1.5144045      0.14303254     1.6574371    
     11500   1.1627124      1.7198454      0.11162262     1.831468     
     12000   0.87377618     1.2924606      0.15522407     1.4476847    
     12500   0.92099017     1.362298       0.17376278     1.5360607    
     13000   0.82689985     1.2231227      0.10124597     1.3243687    
     13500   1.190961       1.7616298      0.2060274      1.9676572    
     14000   1.1258241      1.6652815      0.22503409     1.8903156    
     14500   0.99211901     1.4675094      0.072368256    1.5398776    
     15000   0.82771837     1.2243334      0.12749448     1.3518279    
     15500   1.0753362      1.5906015      0.072222941    1.6628244    
     16000   1.0095149      1.4932408      0.13887644     1.6321172    
     16500   0.82879761     1.2259298      0.18977266     1.4157025    
     17000   0.97092779     1.436164       0.17741057     1.6135746    
     17500   0.95200774     1.4081781      0.13574239     1.5439205    
     18000   1.1133445      1.6468221      0.11934436     1.7661665    
     18500   0.88051283     1.3024252      0.19822657     1.5006518    
     19000   0.96897292     1.4332725      0.14864171     1.5819142    
     19500   1.1481001      1.6982314      0.083865581    1.782097     
     20000   1.1475629      1.6974368      0.091580564    1.7890173    
     20500   0.82753489     1.224062       0.073128427    1.2971904    
     21000   1.0241456      1.5148821      0.19602921     1.7109113    
     21500   0.89861345     1.3291991      0.15172582     1.4809249    
     22000   0.9876635      1.4609189      0.064345916    1.5252648    
     22500   1.0273264      1.519587       0.054277396    1.5738644    
     23000   1.1373965      1.682399       0.062480848    1.7448798    
     23500   0.88310301     1.3062565      0.083463108    1.3897197    
     24000   0.9444871      1.3970538      0.10111617     1.49817      
     24500   0.96523747     1.4277471      0.14606599     1.5738131    
     25000   0.93178503     1.3782654      0.14739173     1.5256571    
     25500   1.0864873      1.6070958      0.074624187    1.68172      
     26000   0.96355162     1.4252534      0.1180525      1.5433059    
     26500   1.1884917      1.7579773      0.13546751     1.8934448    
     27000   0.93471494     1.3825992      0.069334072    1.4519333    
     27500   1.0135718      1.4992416      0.03959212     1.5388337    
     28000   1.0734645      1.5878329      0.076387913    1.6642208    
     28500   1.0719954      1.5856598      0.094361433    1.6800213    
     29000   1.1546141      1.7078667      0.081727995    1.7895947    
     29500   0.90345096     1.3363545      0.068806494    1.405161     
     30000   0.98225003     1.4529115      0.14684255     1.599754     
     30500   0.95849718     1.4177771      0.10200749     1.5197846    
     31000   1.0231504      1.5134099      0.12065566     1.6340656    
     31500   0.90918302     1.3448332      0.13570699     1.4805402    
     32000   1.1720402      1.7336428      0.1155476      1.8491904    
     32500   0.94954305     1.4045324      0.1537141      1.5582465    
     33000   0.98414816     1.4557191      0.13906464     1.5947838    
     33500   1.0019725      1.4820843      0.1016539      1.5837382    
     34000   1.1135508      1.6471273      0.11060447     1.7577317    
     34500   1.1457547      1.6947621      0.090439342    1.7852015    
     35000   1.0297272      1.5231381      0.039255718    1.5623938    
     35500   0.92055631     1.3616562      0.034709303    1.3963655    
     36000   1.2778562      1.8901623      0.054961836    1.9451242    
     36500   1.0620073      1.5708858      0.092818505    1.6637043    
     37000   1.1057183      1.6355417      0.046598816    1.6821405    
     37500   0.89508206     1.3239756      0.18798058     1.5119561    
     38000   0.99187873     1.467154       0.11406836     1.5812223    
     38500   1.0273053      1.5195557      0.053159043    1.5727147    
     39000   1.0332539      1.5283548      0.053777128    1.5821319    
     39500   0.89956214     1.3306023      0.080100709    1.410703     
     40000   0.89889186     1.3296109      0.11616619     1.4457771    
     40500   1.0090028      1.4924833      0.052156671    1.54464      
     41000   0.98795128     1.4613446      0.10195463     1.5632992    
     41500   0.9709254      1.4361605      0.17940497     1.6155655    
     42000   1.0799594      1.59744        0.081736758    1.6791768    
     42500   1.1013636      1.6291003      0.22108585     1.8501862    
     43000   0.98541811     1.4575976      0.16822736     1.625825     
     43500   0.98606058     1.4585479      0.087555169    1.5461031    
     44000   1.0822199      1.6007835      0.071213564    1.6719971    
     44500   0.89124164     1.3182949      0.13661902     1.4549139    
     45000   1.0244114      1.5152752      0.10540466     1.6206798    
     45500   1.0917488      1.6148785      0.083573935    1.6984524    
     46000   1.0490222      1.5516787      0.096742731    1.6484214    
     46500   0.9889089      1.4627611      0.104325       1.5670861    
     47000   0.94593219     1.3991914      0.040746325    1.4399377    
     47500   1.0297071      1.5231085      0.16000516     1.6831136    
     48000   0.8923535      1.3199395      0.076145443    1.396085     
     48500   1.0633043      1.5728042      0.10849759     1.6813018    
     49000   0.91046956     1.3467362      0.13871922     1.4854554    
     49500   0.94985363     1.4049918      0.098820572    1.5038124    
     50000   1.2005915      1.775875       0.078085062    1.85396      
     50500   0.87486447     1.2940704      0.11525473     1.4093251    
     51000   1.0303216      1.5240174      0.18171349     1.7057309    
     51500   0.86948238     1.2861093      0.071158865    1.3572682    
     52000   1.0395876      1.5377234      0.10943199     1.6471554    
     52500   0.97657735     1.4445207      0.098247497    1.5427682    
     53000   1.1564695      1.7106112      0.068960178    1.7795714    
     53500   0.9735754      1.4400803      0.10672993     1.5468102    
     54000   1.0535725      1.5584093      0.10312301     1.6615323    
     54500   0.91326145     1.3508659      0.12359945     1.4744653    
     55000   1.0174661      1.505002       0.10998579     1.6149878    
     55500   0.96548354     1.4281111      0.096760888    1.524872     
     56000   0.87870254     1.2997475      0.14150153     1.441249     
     56500   1.0653832      1.5758793      0.14551482     1.7213941    
     57000   1.0220925      1.5118452      0.091266047    1.6031112    
     57500   1.1025394      1.6308396      0.1640631      1.7949027    
     58000   0.98905554     1.462978       0.11830451     1.5812825    
     58500   1.085009       1.6049092      0.09204456     1.6969537    
     59000   1.1924597      1.7638466      0.13951961     1.9033662    
     59500   1.0333378      1.5284788      0.060235874    1.5887147    
     60000   1.0654758      1.5760164      0.14066608     1.7166824    
     60500   1.0625217      1.5716467      0.16320027     1.734847     
     61000   1.0367378      1.533508       0.17699361     1.7105016    
     61500   1.1426221      1.6901285      0.13472437     1.8248529    
     62000   0.80066442     1.1843161      0.18030991     1.364626     
     62500   1.1878471      1.7570239      0.077330811    1.8343547    
     63000   1.1460274      1.6951656      0.15617198     1.8513376    
     63500   1.0700724      1.5828155      0.12752423     1.7103397    
     64000   0.86258774     1.275911       0.13539739     1.4113084    
     64500   1.0134007      1.4989885      0.18980096     1.6887894    
     65000   1.0528778      1.5573818      0.16504519     1.722427     
     65500   0.91147644     1.3482256      0.23127972     1.5795053    
     66000   1.0587624      1.5660861      0.14189341     1.7079795    
     66500   0.88579731     1.3102419      0.1108456      1.4210875    
     67000   0.85918188     1.2708732      0.041277489    1.3121507    
     67500   0.87704649     1.2972979      0.097460455    1.3947584    
     68000   0.95042323     1.4058344      0.043962027    1.4497964    
     68500   0.96418077     1.4261841      0.091998617    1.5181827    
     69000   1.1074115      1.6380462      0.10200791     1.7400541    
     69500   1.029142       1.5222725      0.11534599     1.6376185    
     70000   1.0942571      1.6185886      0.13976348     1.7583521    
     70500   1.0268011      1.51881        0.14571244     1.6645224    
     71000   1.1066295      1.6368895      0.10242227     1.7393118    
     71500   0.9549317      1.4125031      0.053412179    1.4659153    
     72000   1.128523       1.6692736      0.23479519     1.9040688    
     72500   1.0760464      1.591652       0.10514197     1.696794     
     73000   1.083115       1.6021076      0.12684233     1.7289499    
     73500   1.13133        1.6734257      0.095693832    1.7691195    
     74000   0.84693705     1.2527611      0.054698076    1.3074591    
     74500   1.0703686      1.5832535      0.074990475    1.658244     
     75000   0.86649266     1.2816871      0.14885765     1.4305447    
     75500   1.0064222      1.4886662      0.15967849     1.6483446    
     76000   0.80496107     1.1906716      0.12164121     1.3123128    
     76500   1.1526623      1.7049797      0.0889773      1.793957     
     77000   1.2157945      1.7983626      0.10298595     1.9013486    
     77500   1.1910823      1.7618092      0.16149467     1.9233039    
     78000   0.90014953     1.3314712      0.12761544     1.4590866    
     78500   1.012682       1.4979254      0.06435999     1.5622854    
     79000   1.0518026      1.5557913      0.082594861    1.6383861    
     79500   0.9906137      1.4652828      0.060363123    1.5256459    
     80000   0.99124025     1.4662095      0.069595957    1.5358055    
     80500   0.9189883      1.3593369      0.097108619    1.4564455    
     81000   0.89300669     1.3209057      0.095635679    1.4165414    
     81500   1.0680936      1.5798884      0.071771737    1.6516601    
     82000   1.1308095      1.6726558      0.082601363    1.7552571    
     82500   1.020205       1.5090532      0.065173554    1.5742268    
     83000   0.96403042     1.4259617      0.18121375     1.6071754    
     83500   0.87245162     1.2905014      0.05612407     1.3466254    
     84000   0.93224411     1.3789444      0.047522969    1.4264674    
     84500   1.0132695      1.4987945      0.041092492    1.539887     
     85000   1.1265569      1.6663654      0.081710737    1.7480761    
     85500   0.92890312     1.3740025      0.081267581    1.4552701    
     86000   1.02652        1.5183941      0.12029297     1.6386871    
     86500   1.0402509      1.5387045      0.13738928     1.6760938    
     87000   0.94031104     1.3908767      0.08032216     1.4711989    
     87500   1.1214353      1.6587897      0.072425541    1.7312152    
     88000   1.0794142      1.5966335      0.050721785    1.6473553    
     88500   1.0464328      1.5478486      0.089727494    1.6375761    
     89000   1.1629046      1.7201297      0.060347768    1.7804775    
     89500   0.89870702     1.3293375      0.067355954    1.3966934    
     90000   0.94349826     1.3955912      0.1493997      1.5449909    
     90500   0.91765544     1.3573653      0.12725459     1.4846199    
     91000   1.0952969      1.6201267      0.033148533    1.6532753    
     91500   1.0349347      1.5308409      0.053985015    1.5848259    
     92000   0.96111828     1.4216541      0.13712739     1.5587815    
     92500   1.1385831      1.6841542      0.091054       1.7752082    
     93000   1.0250979      1.5162907      0.10089866     1.6171893    
     93500   1.02201        1.5117231      0.050137797    1.5618609    
     94000   1.0214489      1.5108932      0.12733265     1.6382259    
     94500   1.0512968      1.5550432      0.13471382     1.689757     
     95000   1.0764609      1.5922651      0.079214458    1.6714795    
     95500   1.1090094      1.6404097      0.080104033    1.7205137    
     96000   1.0757016      1.5911419      0.051522074    1.642664     
     96500   0.98322263     1.4543501      0.10262841     1.5569786    
     97000   0.84466871     1.2494058      0.16253962     1.4119454    
     97500   0.86997323     1.2868354      0.20763959     1.494475     
     98000   0.98899507     1.4628885      0.12673153     1.5896201    
     98500   1.0832709      1.6023381      0.13202934     1.7343675    
     99000   0.97843159     1.4472634      0.14244958     1.589713     
     99500   0.91455284     1.3527761      0.097575852    1.4503519    
    100000   1.1172622      1.652617       0.01421003     1.666827     
    100038   0.95571664     1.4136642      0.016194055    1.4298583    
Loop time of 0.677032 on 1 procs for 100000 steps with 72 atoms

Performance: 12761585.416 tau/day, 147703.535 timesteps/s, 10.635 Matom-step/s
137.1% CPU use with 1 MPI tasks x 1 OpenMP threads

MPI task timing breakdown:
Section |  min time  |  avg time  |  max time  |%varavg| %total
---------------------------------------------------------------
Pair    | 0.079546   | 0.079546   | 0.079546   |   0.0 | 11.75
Neigh   | 0.0087111  | 0.0087111  | 0.0087111  |   0.0 |  1.29
Comm    | 0.1411     | 0.1411     | 0.1411     |   0.0 | 20.84
Output  | 0.0077088  | 0.0077088  | 0.0077088  |   0.0 |  1.14
Modify  | 0.41239    | 0.41239    | 0.41239    |   0.0 | 60.91
Other   |            | 0.02757    |            |       |  4.07

Nlocal:             72 ave          72 max          72 min
Histogram: 1 0 0 0 0 0 0 0 0 0
Nghost:            156 ave         156 max         156 min
Histogram: 1 0 0 0 0 0 0 0 0 0
Neighs:            187 ave         187 max         187 min
Histogram: 1 0 0 0 0 0 0 0 0 0

Total # of neighbors = 187
Ave neighs/atom = 2.5972222
Neighbor list builds = 275
Dangerous builds = 0

write_data data.${outfile} nocoeff nofix
write_data data.1708720318 nocoeff nofix
System init for write_data ...
Generated 0 of 0 mixed pair_coeff terms from geometric mixing rule
Total wall time: 0:00:00
