LAMMPS (21 Nov 2023)
OMP_NUM_THREADS environment is not set. Defaulting to 1 thread. (src/comm.cpp:98)
  using 1 OpenMP thread(s) per MPI task
###variable outfile string L15.17
###variable L equal 15.17

units lj

newton off
atom_style      sphere
boundary        p p p
comm_modify     mode single vel yes


region      boxid block 0.0     $L      0.0       $L      0.0       $L
region      boxid block 0.0     5.733683388133033      0.0       $L      0.0       $L
region      boxid block 0.0     5.733683388133033      0.0       5.733683388133033      0.0       $L
region      boxid block 0.0     5.733683388133033      0.0       5.733683388133033      0.0       5.733683388133033
#create_box  1 boxid
include create_box.in
create_box 1 boxid
Created orthogonal box = (0 0 0) to (5.7336834 5.7336834 5.7336834)
  1 by 1 by 1 MPI processor grid


######
include create_np.in
create_atoms 1 random 72 5728 boxid
Created 72 atoms
  using lattice units in orthogonal box = (0 0 0) to (5.7336834 5.7336834 5.7336834)
  create_atoms CPU = 0.001 seconds
velocity    all create 1.0 87287 dist gaussian

#####
include particles.in
set type 1 diameter 1.0
Setting atom values ...
  72 settings made for diameter
set type 1 mass 26.0
Setting atom values ...
  72 settings made for mass

###
fix 1 all langevin 1.0 1.0 0.1 12345
fix 2 all nve/sphere

###
pair_style lj/cut 1.
include pots_lj_lan.in
pair_coeff 1 1 10.0 1.0 1.122462048309373
pair_modify shift yes



minimize          1.0e-4 1.0e-6 1000 1000
Generated 0 of 0 mixed pair_coeff terms from geometric mixing rule
Neighbor list info ...
  update: every = 1 steps, delay = 0 steps, check = yes
  max neighbors/atom: 2000, page size: 100000
  master list distance cutoff = 1.422462
  ghost atom cutoff = 1.422462
  binsize = 0.71123102, bins = 9 9 9
  1 neighbor lists, perpetual/occasional/extra = 1 0 0
  (1) pair lj/cut, perpetual
      attributes: half, newton off
      pair build: half/bin/newtoff
      stencil: full/bin/3d
      bin: standard
Per MPI rank memory allocation (min/avg/max) = 5.444 | 5.444 | 5.444 Mbytes
   Step          Temp          E_pair         E_mol          TotEng         Press     
         0   49.656342      19212.658      0              19286.108      29579.886    
        19   49.656342      0              0              73.450006      18.703891    
Loop time of 0.000617984 on 1 procs for 19 steps with 72 atoms

458.3% CPU use with 1 MPI tasks x 1 OpenMP threads

Minimization stats:
  Stopping criterion = force tolerance
  Energy initial, next-to-last, final = 
      19212.6576272919 1.1779857209731e-05                  0
  Force two-norm initial, final = 43000964 0
  Force max component initial, final = 26043430 0
  Final line search alpha, max atom move = 0.0054631216 0
  Iterations, force evaluations = 19 59

MPI task timing breakdown:
Section |  min time  |  avg time  |  max time  |%varavg| %total
---------------------------------------------------------------
Pair    | 0.00010719 | 0.00010719 | 0.00010719 |   0.0 | 17.35
Neigh   | 0.00021967 | 0.00021967 | 0.00021967 |   0.0 | 35.55
Comm    | 0.00014921 | 0.00014921 | 0.00014921 |   0.0 | 24.14
Output  | 0          | 0          | 0          |   0.0 |  0.00
Modify  | 0          | 0          | 0          |   0.0 |  0.00
Other   |            | 0.0001419  |            |       | 22.96

Nlocal:             72 ave          72 max          72 min
Histogram: 1 0 0 0 0 0 0 0 0 0
Nghost:            188 ave         188 max         188 min
Histogram: 1 0 0 0 0 0 0 0 0 0
Neighs:            219 ave         219 max         219 min
Histogram: 1 0 0 0 0 0 0 0 0 0

Total # of neighbors = 219
Ave neighs/atom = 3.0416667
Neighbor list builds = 6
Dangerous builds = 0

thermo_style custom step temp ke pe etotal
thermo 500
timestep 0.001
#dump    id all custom 5000 out_lan_${outfile}.lammpstrj id type radius mass xu yu zu vx vy vz fx fy fz
dump    id all custom 5000 out_lan_${outfile}.lammpstrj id type radius mass x y z
dump    id all custom 5000 out_lan_1708805434.lammpstrj id type radius mass x y z
run 100000
Generated 0 of 0 mixed pair_coeff terms from geometric mixing rule
Per MPI rank memory allocation (min/avg/max) = 4.319 | 4.319 | 4.319 Mbytes
   Step          Temp          KinEng         PotEng         TotEng    
        19   49.656342      73.450006      0              73.450006    
       500   1.0527202      1.5571487      0.22268284     1.7798315    
      1000   1.1479791      1.6980524      0.14175003     1.8398024    
      1500   0.91394627     1.3518789      0.23591159     1.5877904    
      2000   1.0155776      1.5022085      0.20907881     1.7112874    
      2500   1.0831048      1.6020926      0.18984391     1.7919365    
      3000   1.0562927      1.5624329      0.079667834    1.6421008    
      3500   1.0488458      1.5514177      0.15615308     1.7075708    
      4000   0.93892565     1.3888275      0.23881847     1.627646     
      4500   1.0711862      1.5844629      0.21563597     1.8000988    
      5000   1.1300639      1.6715528      0.13978746     1.8113403    
      5500   0.96455312     1.4267348      0.049679165    1.476414     
      6000   1.1487238      1.6991539      0.12164081     1.8207947    
      6500   0.99271361     1.4683889      0.092890316    1.5612792    
      7000   0.97668999     1.4446873      0.07432742     1.5190147    
      7500   1.0829346      1.6018407      0.092325745    1.6941665    
      8000   0.77447271     1.1455742      0.11833904     1.2639133    
      8500   1.0442749      1.5446566      0.096416993    1.6410736    
      9000   1.1534626      1.7061634      0.062745257    1.7689087    
      9500   1.0018231      1.4818634      0.13732673     1.6191901    
     10000   1.0406471      1.5392905      0.11721681     1.6565073    
     10500   1.0073987      1.4901106      0.15407545     1.6441861    
     11000   1.0658244      1.5765319      0.12547054     1.7020024    
     11500   1.0224979      1.5124449      0.065472158    1.577917     
     12000   0.89733766     1.327312       0.053443816    1.3807558    
     12500   0.80865773     1.1961396      0.15412787     1.3502674    
     13000   0.84391199     1.2482865      0.10727602     1.3555625    
     13500   1.2005669      1.7758385      0.19059357     1.966432     
     14000   1.0657662      1.5764459      0.11512554     1.6915714    
     14500   0.95999429     1.4199916      0.15921709     1.5792087    
     15000   0.97429984     1.4411518      0.085247692    1.5263995    
     15500   1.1226559      1.6605952      0.077291101    1.7378863    
     16000   1.0323348      1.5269953      0.16536635     1.6923616    
     16500   0.96787975     1.4316555      0.16382137     1.5954768    
     17000   0.92754189     1.371989       0.070792871    1.4427819    
     17500   0.89964093     1.3307189      0.13086119     1.4615801    
     18000   1.0380483      1.5354465      0.050743392    1.5861899    
     18500   1.0025734      1.4829731      0.051401744    1.5343749    
     19000   1.1776054      1.7418747      0.066915854    1.8087905    
     19500   1.0381899      1.5356559      0.087568474    1.6232244    
     20000   0.99670775     1.4742969      0.095927205    1.5702241    
     20500   0.88871246     1.3145538      0.071194226    1.3857481    
     21000   1.1147888      1.6489584      0.10797856     1.756937     
     21500   1.0250776      1.5162606      0.043506822    1.5597675    
     22000   0.99653634     1.4740433      0.13448388     1.6085272    
     22500   0.94774518     1.4018731      0.07299501     1.4748681    
     23000   0.99541163     1.4723797      0.19661684     1.6689965    
     23500   0.85876631     1.2702585      0.082210684    1.3524692    
     24000   1.0347733      1.5306022      0.047878978    1.5784812    
     24500   1.0579324      1.5648583      0.18242433     1.7472827    
     25000   0.98518536     1.4572533      0.094770831    1.5520242    
     25500   1.1169574      1.6521661      0.14241953     1.7945857    
     26000   1.0030206      1.4836347      0.12957093     1.6132056    
     26500   1.1725512      1.7343986      0.16048468     1.8948833    
     27000   0.93378637     1.3812257      0.25337337     1.634599     
     27500   1.0235882      1.5140576      0.05844051     1.5724981    
     28000   1.1135331      1.647101       0.21355061     1.8606516    
     28500   0.90521168     1.3389589      0.17392988     1.5128888    
     29000   1.1463369      1.6956233      0.17050025     1.8661235    
     29500   0.97332809     1.4397145      0.082018534    1.521733     
     30000   1.1402522      1.6866231      0.16837126     1.8549943    
     30500   0.83898325     1.2409961      0.21145193     1.452448     
     31000   1.1158756      1.650566       0.19037156     1.8409375    
     31500   0.95970907     1.4195697      0.12010116     1.5396708    
     32000   1.1287919      1.6696714      0.14047534     1.8101468    
     32500   1.0234993      1.5139261      0.089179205    1.6031053    
     33000   1.0475791      1.5495441      0.096022489    1.6455666    
     33500   0.93491472     1.3828947      0.1300106      1.5129053    
     34000   1.060177       1.5681784      0.15453342     1.7227118    
     34500   1.0317097      1.5260706      0.12172586     1.6477965    
     35000   1.0919609      1.6151921      0.15897935     1.7741715    
     35500   0.930557       1.3764489      0.075019482    1.4514684    
     36000   1.2472979      1.8449615      0.10249397     1.9474554    
     36500   1.0051485      1.4867822      0.09723726     1.5840195    
     37000   1.0775521      1.5938792      0.10899962     1.7028788    
     37500   0.9898826      1.4642013      0.16655068     1.630752     
     38000   1.0970986      1.6227917      0.084614956    1.7074066    
     38500   1.0326089      1.5274007      0.070033664    1.5974344    
     39000   0.923767       1.3664054      0.093233434    1.4596388    
     39500   0.95011942     1.405385       0.13567943     1.5410644    
     40000   0.97083699     1.4360297      0.16532426     1.601354     
     40500   1.0004759      1.4798706      0.12015287     1.6000234    
     41000   0.91008502     1.3461674      0.12022796     1.4663954    
     41500   1.0486973      1.5511981      0.12212159     1.6733197    
     42000   1.0428196      1.542504       0.078596403    1.6211004    
     42500   1.1289412      1.6698922      0.10083029     1.7707225    
     43000   0.96304335     1.4245016      0.13664344     1.5611451    
     43500   1.0763207      1.5920576      0.11552683     1.7075845    
     44000   1.108036       1.6389699      0.15281964     1.7917896    
     44500   0.84590386     1.2512328      0.068639349    1.3198721    
     45000   0.94510087     1.3979617      0.10957781     1.5075395    
     45500   0.91258754     1.3498691      0.12916569     1.4790348    
     46000   1.0119106      1.4967844      0.068340725    1.5651251    
     46500   1.0122274      1.497253       0.10233186     1.5995848    
     47000   1.0927241      1.6163211      0.073674009    1.6899951    
     47500   1.0450885      1.5458601      0.14185153     1.6877117    
     48000   0.93478631     1.3827048      0.10293145     1.4856362    
     48500   1.0135601      1.4992244      0.14880766     1.648032     
     49000   1.0651595      1.5755485      0.077306341    1.6528548    
     49500   1.0648078      1.5750282      0.064760154    1.6397884    
     50000   1.1888642      1.7585283      0.1141137      1.872642     
     50500   0.97011872     1.4349673      0.082799454    1.5177667    
     51000   0.83099221     1.229176       0.23372238     1.4628984    
     51500   0.86263652     1.2759832      0.088434142    1.3644173    
     52000   0.91880927     1.359072       0.048864433    1.4079365    
     52500   0.95829596     1.4174794      0.089728345    1.5072078    
     53000   1.2672782      1.8745156      0.054213672    1.9287293    
     53500   0.98258075     1.4534007      0.12699133     1.580392     
     54000   1.1156947      1.6502984      0.044295711    1.6945941    
     54500   0.99165128     1.4668175      0.1051984      1.5720159    
     55000   1.105263       1.6348682      0.059863941    1.6947321    
     55500   1.094896       1.6195336      0.06895964     1.6884933    
     56000   0.98631294     1.4589212      0.043768288    1.5026895    
     56500   1.0843498      1.6039341      0.042183012    1.6461171    
     57000   0.91908758     1.3594837      0.10177537     1.4612591    
     57500   1.1242915      1.6630145      0.076988266    1.7400028    
     58000   0.98490029     1.4568317      0.11093834     1.56777      
     58500   1.0060106      1.4880573      0.12618935     1.6142467    
     59000   1.123544       1.6619089      0.15344449     1.8153534    
     59500   1.0441924      1.5445345      0.10562191     1.6501564    
     60000   1.2682649      1.8759751      0.13990564     2.0158808    
     60500   1.0236237      1.5141101      0.061004951    1.575115     
     61000   0.92454306     1.3675533      0.12769121     1.4952445    
     61500   0.97190392     1.4376079      0.093072933    1.5306808    
     62000   0.8999558      1.3311846      0.095883127    1.4270678    
     62500   1.04161        1.5407148      0.059994125    1.6007089    
     63000   1.0416478      1.5407708      0.088161777    1.6289326    
     63500   0.95701334     1.4155822      0.087078818    1.502661     
     64000   1.0141156      1.500046       0.07554686     1.5755929    
     64500   1.0143733      1.5004272      0.14047423     1.6409015    
     65000   0.90244805     1.3348711      0.17411554     1.5089866    
     65500   0.94252708     1.3941546      0.22743946     1.6215941    
     66000   1.0779065      1.5944033      0.099554479    1.6939578    
     66500   1.0859767      1.6063405      0.069852355    1.6761928    
     67000   1.00963        1.493411       0.10168143     1.5950924    
     67500   0.89804425     1.3283571      0.10115988     1.429517     
     68000   0.96236799     1.4235026      0.088238919    1.5117416    
     68500   1.0791378      1.5962247      0.075114178    1.6713388    
     69000   1.2024073      1.7785608      0.094826894    1.8733877    
     69500   1.1038321      1.6327517      0.076883234    1.709635     
     70000   1.2254702      1.8126747      0.046967582    1.8596423    
     70500   1.0904934      1.6130215      0.056921038    1.6699426    
     71000   1.0537638      1.5586922      0.070475042    1.6291673    
     71500   0.92579749     1.3694088      0.078564729    1.4479735    
     72000   1.0316583      1.5259945      0.10060241     1.6265969    
     72500   1.0533311      1.5580522      0.078016332    1.6360685    
     73000   1.298363       1.9204953      0.060009918    1.9805052    
     73500   1.0784493      1.5952063      0.057979082    1.6531854    
     74000   1.0159656      1.5027824      0.081081482    1.5838639    
     74500   1.0446652      1.545234       0.054537462    1.5997714    
     75000   0.87995915     1.3016062      0.16912358     1.4707298    
     75500   1.1005948      1.6279632      0.055509435    1.6834726    
     76000   0.98030423     1.4500333      0.13402337     1.5840567    
     76500   1.1703037      1.7310742      0.19026522     1.9213395    
     77000   1.1767484      1.7406071      0.20225948     1.9428666    
     77500   1.201713       1.7775338      0.11939032     1.8969241    
     78000   0.99119709     1.4661457      0.14289199     1.6090377    
     78500   0.94211865     1.3935505      0.14406136     1.5376119    
     79000   1.0096218      1.4933989      0.14450495     1.6379038    
     79500   0.99760462     1.4756235      0.12176335     1.5973869    
     80000   0.92625478     1.3700852      0.09373391     1.4638191    
     80500   0.95268509     1.40918        0.090403801    1.4995838    
     81000   0.91176139     1.3486471      0.16927538     1.5179224    
     81500   0.83948775     1.2417423      0.11509736     1.3568397    
     82000   1.243395       1.8391884      0.051733909    1.8909223    
     82500   0.97793854     1.4465341      0.15985483     1.6063889    
     83000   1.0163036      1.5032825      0.10284739     1.6061299    
     83500   1.0245436      1.5154707      0.10913888     1.6246096    
     84000   0.96744296     1.4310094      0.076900398    1.5079098    
     84500   1.1467412      1.6962213      0.17197789     1.8681992    
     85000   1.1088552      1.6401817      0.10845389     1.7486356    
     85500   0.95857859     1.4178975      0.068384936    1.4862824    
     86000   0.99814254     1.4764192      0.083005183    1.5594244    
     86500   1.0160963      1.5029758      0.054726502    1.5577023    
     87000   1.1884851      1.7579675      0.15100371     1.9089712    
     87500   0.96428004     1.4263309      0.057461705    1.4837926    
     88000   1.0595137      1.5671974      0.11622888     1.6834263    
     88500   1.2017712      1.7776199      0.11210231     1.8897222    
     89000   1.198747       1.7731466      0.071166178    1.8443127    
     89500   0.91475987     1.3530823      0.095324856    1.4484072    
     90000   1.0676905      1.5792922      0.061896721    1.6411889    
     90500   1.0201354      1.5089503      0.14564093     1.6545912    
     91000   0.98908938     1.463028       0.13357327     1.5966013    
     91500   1.0797645      1.5971516      0.072544352    1.6696959    
     92000   0.92707488     1.3712983      0.12925455     1.5005528    
     92500   0.98353948     1.4548188      0.23293726     1.6877561    
     93000   0.96877423     1.4329786      0.11013695     1.5431155    
     93500   1.0740695      1.5887278      0.084327973    1.6730558    
     94000   1.0873902      1.6084314      0.15519577     1.7636272    
     94500   0.95901654     1.4185453      0.084507221    1.5030525    
     95000   1.1125331      1.6456219      0.082130746    1.7277527    
     95500   0.95797639     1.4170067      0.099243636    1.5162504    
     96000   1.0646088      1.5747338      0.13801227     1.7127461    
     96500   0.9831855      1.4542952      0.22137231     1.6756675    
     97000   0.84199025     1.2454439      0.15865081     1.4040947    
     97500   0.92994289     1.3755405      0.03845584     1.4139964    
     98000   1.1448619      1.6934415      0.15495559     1.8483971    
     98500   1.0808357      1.5987362      0.090991754    1.6897279    
     99000   0.98472007     1.4565651      0.099617949    1.556183     
     99500   0.8855048      1.3098092      0.1838849      1.4936941    
    100000   0.97225192     1.4381226      0.25147728     1.6895999    
    100019   0.90676222     1.3412524      0.24583198     1.5870844    
Loop time of 0.675282 on 1 procs for 100000 steps with 72 atoms

Performance: 12794650.282 tau/day, 148086.230 timesteps/s, 10.662 Matom-step/s
121.4% CPU use with 1 MPI tasks x 1 OpenMP threads

MPI task timing breakdown:
Section |  min time  |  avg time  |  max time  |%varavg| %total
---------------------------------------------------------------
Pair    | 0.075904   | 0.075904   | 0.075904   |   0.0 | 11.24
Neigh   | 0.0087861  | 0.0087861  | 0.0087861  |   0.0 |  1.30
Comm    | 0.15022    | 0.15022    | 0.15022    |   0.0 | 22.25
Output  | 0.00633    | 0.00633    | 0.00633    |   0.0 |  0.94
Modify  | 0.40596    | 0.40596    | 0.40596    |   0.0 | 60.12
Other   |            | 0.02808    |            |       |  4.16

Nlocal:             72 ave          72 max          72 min
Histogram: 1 0 0 0 0 0 0 0 0 0
Nghost:            185 ave         185 max         185 min
Histogram: 1 0 0 0 0 0 0 0 0 0
Neighs:            199 ave         199 max         199 min
Histogram: 1 0 0 0 0 0 0 0 0 0

Total # of neighbors = 199
Ave neighs/atom = 2.7638889
Neighbor list builds = 275
Dangerous builds = 0

write_data data.${outfile} nocoeff nofix
write_data data.1708805434 nocoeff nofix
System init for write_data ...
Generated 0 of 0 mixed pair_coeff terms from geometric mixing rule
Total wall time: 0:00:00
